LAMMPS (15 Jun 2023)
OMP_NUM_THREADS environment is not set. Defaulting to 1 thread. (src/comm.cpp:98)
  using 1 OpenMP thread(s) per MPI task
Loaded 0 plugins from C:\Users\olive\LAMMPS 64-bit 28Mar2023\plugins
Loaded 1 plugins from C:\Users\olive\LAMMPS\plugins

#Inicialização

variable T equal 300

units metal
atom_style molecular
boundary p p p
pair_style airebo 2 1 1

#Parâmetros da simulação

read_data cnt_atom.data
Reading data file ...
  orthogonal box = (-40 -40 -14.825508) to (40 40 65.174492)
  1 by 1 by 1 MPI processor grid
  reading atoms ...
  840 atoms
Finding 1-2 1-3 1-4 neighbors ...
  special bond factors lj:    0        0        0       
  special bond factors coul:  0        0        0       
     0 = max # of 1-2 neighbors
     0 = max # of 1-3 neighbors
     0 = max # of 1-4 neighbors
     1 = max # of special neighbors
  special bonds CPU = 0.001 seconds
  read_data CPU = 0.005 seconds
pair_coeff * * CHrcc2.airebo C
Reading airebo potential file CHrcc2.airebo with DATE: 2011-10-25

#Recentralizando o CNT e a caixa

change_box all x final -40 40 y final -40 40 z final -60 60
Changing box ...
  orthogonal box = (-40 -40 -14.825508) to (40 40 65.174492)
  orthogonal box = (-40 -40 -14.825508) to (40 40 65.174492)
  orthogonal box = (-40 -40 -60) to (40 40 60)

group carbon_atoms type 1
840 atoms in group carbon_atoms
variable carbon_xcm equal -1*xcm(carbon_atoms,x)
variable carbon_ycm equal -1*xcm(carbon_atoms,y)
variable carbon_zcm equal -1*xcm(carbon_atoms,z)
displace_atoms carbon_atoms move ${carbon_xcm} ${carbon_ycm} ${carbon_zcm}
displace_atoms carbon_atoms move 2.81710211474173e-18 ${carbon_ycm} ${carbon_zcm}
displace_atoms carbon_atoms move 2.81710211474173e-18 4.77498808448723e-16 ${carbon_zcm}
displace_atoms carbon_atoms move 2.81710211474173e-18 4.77498808448723e-16 -25.1744925714285
Displacing atoms ...

variable zmax equal bound(carbon_atoms,zmax)-10
variable zmin equal bound(carbon_atoms,zmin)+10
region rtop block INF INF INF INF ${zmax} INF
region rtop block INF INF INF INF 15.1744914285715 INF
region rbot block INF INF INF INF INF ${zmin}
region rbot block INF INF INF INF INF -15.1744925714285
region rmid block INF INF INF INF ${zmin} ${zmax}
region rmid block INF INF INF INF -15.1744925714285 ${zmax}
region rmid block INF INF INF INF -15.1744925714285 15.1744914285715

group carbon_top region rtop
180 atoms in group carbon_top
group carbon_bot region rbot
180 atoms in group carbon_bot
group carbon_mid region rmid
480 atoms in group carbon_mid

#Termalização e dinâmica do sistema

velocity carbon_mid create ${T} 48455 mom yes rot yes
velocity carbon_mid create 300 48455 mom yes rot yes
fix mynve all nve
compute Tmid carbon_mid temp
fix myber carbon_mid temp/berendsen ${T} ${T} 0.1
fix myber carbon_mid temp/berendsen 300 ${T} 0.1
fix myber carbon_mid temp/berendsen 300 300 0.1
fix_modify myber temp Tmid

#Restrigindo o movimento dos átomos da borda

fix mysf1 carbon_bot setforce 0 0 0
fix mysf2 carbon_top setforce 0 0 0
velocity carbon_bot set 0 0 0
velocity carbon_top set 0 0 0

#Salvando os dados

variable pos equal v_zmax-v_zmin
fix at1 all ave/time 10 10 100 v_pos file cnt_deflection.dat
fix at2 all ave/time 10 10 100 f_mysf1[3] f_mysf2[3] file edge_force.dat

#Salvando as coordenadas

dump mydmp all atom 1000 dump.lammpstrj

#Equilibrando

thermo 100
thermo_modify temp Tmid
WARNING: Temperature for thermo pressure is not for group all (src/thermo.cpp:527)

timestep 0.0005
run 10000
Neighbor list info ...
  update: every = 1 steps, delay = 0 steps, check = yes
  max neighbors/atom: 2000, page size: 100000
  master list distance cutoff = 9.816371
  ghost atom cutoff = 9.816371
  binsize = 4.9081855, bins = 17 17 25
  1 neighbor lists, perpetual/occasional/extra = 1 0 0
  (1) pair airebo, perpetual
      attributes: full, newton on, ghost
      pair build: full/bin/ghost
      stencil: full/ghost/bin/3d
      bin: standard
Per MPI rank memory allocation (min/avg/max) = 6.76 | 6.76 | 6.76 Mbytes
   Step          Temp          E_pair         E_mol          TotEng         Press     
         0   300           -6106.4928      0             -6087.9181     -953.97303    
       100   258.23158     -6100.5991      0             -6084.6106     -610.54851    
       200   196.07303     -6094.2079      0             -6082.0679     -269.88471    
       300   254.45219     -6095.8859      0             -6080.1313     -645.15511    
       400   222.45203     -6092.186       0             -6078.4127     -970.38323    
       500   291.1466      -6095.1829      0             -6077.1564     -643.09978    
       600   274.11624     -6093.3832      0             -6076.4111     -276.19725    
       700   308.7241      -6094.7939      0             -6075.679      -610.65302    
       800   249.2959      -6090.4202      0             -6074.9848     -951.11577    
       900   321.47415     -6094.4327      0             -6074.5285     -668.53216    
      1000   280.24256     -6091.9438      0             -6074.5924     -334.79139    
      1100   291.6609      -6092.2381      0             -6074.1797     -609.16939    
      1200   275.23426     -6090.5647      0             -6073.5234     -880.01297    
      1300   329.17508     -6093.9388      0             -6073.5577     -624.41129    
      1400   302.09178     -6092.6124      0             -6073.9083     -441.23029    
      1500   300.25312     -6092.2932      0             -6073.7028     -675.697      
      1600   281.74555     -6090.6393      0             -6073.1949     -772.0243     
      1700   308.35664     -6092.1976      0             -6073.1055     -549.84496    
      1800   301.1915      -6092.0947      0             -6073.4462     -526.60246    
      1900   295.60122     -6091.7046      0             -6073.4023     -748.85916    
      2000   294.8347      -6091.4093      0             -6073.1544     -725.98926    
      2100   299.78528     -6091.7483      0             -6073.1869     -499.05737    
      2200   301.8717      -6091.9238      0             -6073.2333     -556.19329    
      2300   293.4732      -6091.4426      0             -6073.2721     -775.56795    
      2400   296.04515     -6091.4285      0             -6073.0987     -718.20224    
      2500   292.15348     -6091.3318      0             -6073.243      -497.55828    
      2600   296.46877     -6091.462       0             -6073.106      -563.03491    
      2700   307.30214     -6092.0987      0             -6073.0719     -748.49744    
      2800   312.57742     -6092.4522      0             -6073.0988     -714.62813    
      2900   313.70485     -6092.7858      0             -6073.3626     -562.99551    
      3000   286.83443     -6090.7965      0             -6073.037      -558.09967    
      3100   309.26211     -6092.1668      0             -6073.0187     -658.09488    
      3200   301.78733     -6091.8059      0             -6073.1206     -709.02822    
      3300   300.42672     -6091.9018      0             -6073.3007     -650.8565     
      3400   291.31584     -6091.1287      0             -6073.0917     -570.12654    
      3500   313.16204     -6092.45        0             -6073.0604     -586.1448     
      3600   285.26129     -6090.7602      0             -6073.098      -691.26794    
      3700   330.86987     -6093.6483      0             -6073.1623     -721.0921     
      3800   283.75782     -6090.8381      0             -6073.269      -602.15197    
      3900   313.15875     -6092.4974      0             -6073.108      -525.75507    
      4000   293.94507     -6091.2695      0             -6073.0697     -646.34495    
      4100   297.6622      -6091.5318      0             -6073.1019     -759.16427    
      4200   288.65245     -6091.1091      0             -6073.237      -646.96835    
      4300   295.01228     -6091.391       0             -6073.1251     -491.93156    
      4400   301.1562      -6091.8269      0             -6073.1806     -604.17615    
      4500   314.59311     -6092.5469      0             -6073.0687     -789.2481     
      4600   307.23415     -6092.1863      0             -6073.1637     -673.56869    
      4700   297.98162     -6091.5471      0             -6073.0974     -479.1291     
      4800   284.71916     -6090.7761      0             -6073.1476     -580.93574    
      4900   296.64056     -6091.3105      0             -6072.9438     -775.6223     
      5000   305.66902     -6091.9845      0             -6073.0588     -711.98106    
      5100   311.23488     -6092.4485      0             -6073.1782     -489.40183    
      5200   298.72086     -6091.8092      0             -6073.3137     -554.6701     
      5300   304.21353     -6091.7671      0             -6072.9315     -763.30372    
      5400   293.74617     -6091.2341      0             -6073.0466     -704.4623     
      5500   291.2379      -6091.2262      0             -6073.1941     -508.68703    
      5600   286.37744     -6090.9141      0             -6073.1828     -576.23235    
      5700   302.19732     -6091.6814      0             -6072.9707     -741.57481    
      5800   313.72939     -6092.4967      0             -6073.0719     -687.40418    
      5900   299.95944     -6091.7698      0             -6073.1976     -548.17749    
      6000   292.98015     -6091.3611      0             -6073.2211     -597.01549    
      6100   295.71332     -6091.4418      0             -6073.1326     -720.37367    
      6200   314.3716      -6092.588       0             -6073.1235     -658.73415    
      6300   304.355       -6091.9849      0             -6073.1405     -557.82749    
      6400   298.71527     -6091.6438      0             -6073.1487     -616.62364    
      6500   296.18423     -6091.4416      0             -6073.1032     -714.38427    
      6600   302.81437     -6091.7913      0             -6073.0423     -655.97735    
      6700   295.34493     -6091.3879      0             -6073.1015     -557.02598    
      6800   321.90413     -6093.2708      0             -6073.34       -614.47333    
      6900   285.73751     -6090.9106      0             -6073.219      -735.03066    
      7000   308.91163     -6092.1111      0             -6072.9846     -637.01531    
      7100   298.87221     -6091.5726      0             -6073.0677     -515.78122    
      7200   308.311       -6092.2709      0             -6073.1817     -641.05732    
      7300   284.57724     -6090.8517      0             -6073.2319     -750.21779    
      7400   316.83042     -6092.676       0             -6073.0592     -630.02438    
      7500   305.70808     -6092.1004      0             -6073.1723     -509.2138     
      7600   295.3716      -6091.3684      0             -6073.0803     -640.25525    
      7700   290.74997     -6091.1175      0             -6073.1155     -740.27637    
      7800   295.73424     -6091.3828      0             -6073.0722     -640.42064    
      7900   302.47725     -6091.9147      0             -6073.1866     -530.9403     
      8000   302.7139      -6091.7647      0             -6073.022      -631.15927    
      8100   295.98507     -6091.4808      0             -6073.1547     -721.71156    
      8200   294.13255     -6091.2309      0             -6073.0195     -645.44942    
      8300   299.52805     -6091.7237      0             -6073.1782     -566.10951    
      8400   300.81551     -6091.7923      0             -6073.1671     -615.40317    
      8500   299.34598     -6091.6209      0             -6073.0867     -694.80299    
      8600   271.76809     -6089.7987      0             -6072.972      -653.5004     
      8700   293.73153     -6091.2693      0             -6073.0828     -572.53428    
      8800   292.25352     -6091.2718      0             -6073.1768     -618.11044    
      8900   298.17507     -6091.6236      0             -6073.1619     -698.91379    
      9000   295.65701     -6091.3426      0             -6073.0368     -633.12277    
      9100   313.60695     -6092.5353      0             -6073.1181     -589.19152    
      9200   305.11864     -6092.1872      0             -6073.2956     -642.94907    
      9300   308.0743      -6092.2805      0             -6073.2059     -675.77422    
      9400   291.07819     -6091.0244      0             -6073.0022     -608.42191    
      9500   318.07609     -6092.8909      0             -6073.197      -613.91524    
      9600   295.71326     -6091.4295      0             -6073.1202     -667.22038    
      9700   300.29772     -6091.692       0             -6073.0989     -648.46545    
      9800   317.80812     -6092.8418      0             -6073.1645     -605.54467    
      9900   314.57628     -6092.6881      0             -6073.2109     -633.79765    
     10000   285.27464     -6090.7567      0             -6073.0937     -649.80465    
Loop time of 35.2816 on 1 procs for 10000 steps with 840 atoms

Performance: 12.244 ns/day, 1.960 hours/ns, 283.434 timesteps/s, 238.085 katom-step/s
24.2% CPU use with 1 MPI tasks x 1 OpenMP threads

MPI task timing breakdown:
Section |  min time  |  avg time  |  max time  |%varavg| %total
---------------------------------------------------------------
Pair    | 35.001     | 35.001     | 35.001     |   0.0 | 99.20
Bond    | 0.002361   | 0.002361   | 0.002361   |   0.0 |  0.01
Neigh   | 0          | 0          | 0          |   0.0 |  0.00
Comm    | 0.007653   | 0.007653   | 0.007653   |   0.0 |  0.02
Output  | 0.049305   | 0.049305   | 0.049305   |   0.0 |  0.14
Modify  | 0.18357    | 0.18357    | 0.18357    |   0.0 |  0.52
Other   |            | 0.03769    |            |       |  0.11

Nlocal:            840 ave         840 max         840 min
Histogram: 1 0 0 0 0 0 0 0 0 0
Nghost:              0 ave           0 max           0 min
Histogram: 1 0 0 0 0 0 0 0 0 0
Neighs:              0 ave           0 max           0 min
Histogram: 1 0 0 0 0 0 0 0 0 0
FullNghs:        95400 ave       95400 max       95400 min
Histogram: 1 0 0 0 0 0 0 0 0 0

Total # of neighbors = 95400
Ave neighs/atom = 113.57143
Ave special neighs/atom = 0
Neighbor list builds = 0
Dangerous builds = 0

#Deformando o CNT

velocity carbon_top set 0 0 0.03
velocity carbon_bot set 0 0 -0.03
run 280000
Per MPI rank memory allocation (min/avg/max) = 7.792 | 7.792 | 7.792 Mbytes
   Step          Temp          E_pair         E_mol          TotEng         Press     
     10000   285.27464     -6090.7567      0             -6073.0937     -649.80465    
     10100   309.24756     -6092.0901      0             -6072.9429     -627.01165    
     10200   295.995       -6091.4874      0             -6073.1607     -635.00848    
     10300   298.37701     -6091.5428      0             -6073.0686     -647.88433    
     10400   307.29057     -6092.0411      0             -6073.0151     -633.72045    
     10500   292.93824     -6091.102       0             -6072.9645     -638.20332    
     10600   293.37429     -6091.1661      0             -6073.0016     -646.3281     
     10700   299.73788     -6091.3325      0             -6072.7741     -655.20817    
     10800   306.71802     -6091.8232      0             -6072.8325     -639.04566    
     10900   306.01447     -6091.7225      0             -6072.7754     -630.57733    
     11000   295.11866     -6091.0823      0             -6072.8098     -662.45596    
     11100   296.23834     -6091.0396      0             -6072.6978     -670.32683    
     11200   304.69421     -6091.6531      0             -6072.7877     -662.02728    
     11300   283.59123     -6090.2544      0             -6072.6956     -634.58091    
     11400   302.76712     -6091.3626      0             -6072.6166     -651.31721    
     11500   303.61922     -6091.3874      0             -6072.5886     -681.83628    
     11600   292.79487     -6090.6523      0             -6072.5237     -676.93603    
     11700   298.92632     -6090.9485      0             -6072.4403     -636.79409    
     11800   300.48551     -6091.0367      0             -6072.432      -652.11786    
     11900   298.53843     -6091.0894      0             -6072.6053     -678.60657    
     12000   301.12905     -6091.06        0             -6072.4154     -696.11325    
     12100   295.30955     -6090.6585      0             -6072.3742     -654.28449    
     12200   303.03874     -6091.1538      0             -6072.3909     -634.97619    
     12300   300.74232     -6090.9031      0             -6072.2824     -683.07957    
     12400   301.47212     -6090.9108      0             -6072.245      -711.71699    
     12500   315.67134     -6091.8496      0             -6072.3046     -675.56498    
     12600   297.62189     -6090.7244      0             -6072.297      -641.57863    
     12700   292.7995      -6090.3556      0             -6072.2267     -691.56656    
     12800   306.08487     -6091.0017      0             -6072.0503     -705.64304    
     12900   293.50889     -6090.2502      0             -6072.0774     -676.64106    
     13000   301.37848     -6090.7985      0             -6072.1385     -666.03652    
     13100   296.52108     -6090.3798      0             -6072.0205     -692.72105    
     13200   298.18546     -6090.3705      0             -6071.9081     -686.07663    
     13300   313.36476     -6091.3684      0             -6071.9662     -704.15755    
     13400   300.72404     -6090.6166      0             -6071.9971     -697.95909    
     13500   300.68907     -6090.4958      0             -6071.8785     -678.31497    
     13600   293.86476     -6089.9252      0             -6071.7304     -683.55052    
     13700   303.5035      -6090.5307      0             -6071.7391     -708.13563    
     13800   307.5987      -6090.7032      0             -6071.658      -704.37604    
     13900   294.8975      -6090.0007      0             -6071.742      -691.87645    
     14000   290.40357     -6089.5793      0             -6071.5988     -686.67475    
     14100   292.00562     -6089.6136      0             -6071.5339     -703.54726    
     14200   310.4425      -6090.7859      0             -6071.5646     -721.72792    
     14300   298.11398     -6090.0123      0             -6071.5544     -709.30838    
     14400   288.95472     -6089.3608      0             -6071.47       -704.14476    
     14500   297.21164     -6089.633       0             -6071.231      -687.00834    
     14600   293.92731     -6089.6172      0             -6071.4185     -718.42237    
     14700   306.46868     -6090.3096      0             -6071.3344     -733.32213    
     14800   290.09735     -6089.1883      0             -6071.2267     -723.41441    
     14900   315.11297     -6090.7264      0             -6071.216      -691.61276    
     15000   307.27677     -6090.2587      0             -6071.2334     -703.53315    
     15100   297.31429     -6089.509       0             -6071.1006     -734.91859    
     15200   310.21607     -6090.353       0             -6071.1458     -736.61112    
     15300   283.71164     -6088.6139      0             -6071.0477     -705.50769    
     15400   295.20998     -6089.2437      0             -6070.9656     -708.83035    
     15500   294.35761     -6089.0957      0             -6070.8703     -726.73701    
     15600   298.5618      -6089.5268      0             -6071.0411     -744.10057    
     15700   297.91745     -6089.2832      0             -6070.8375     -737.33052    
     15800   304.19274     -6089.6419      0             -6070.8076     -716.12765    
     15900   306.86223     -6089.6551      0             -6070.6556     -720.56108    
     16000   299.99659     -6089.3301      0             -6070.7557     -737.62429    
     16100   290.42772     -6088.6363      0             -6070.6543     -757.33348    
     16200   301.05226     -6089.2831      0             -6070.6433     -743.79222    
     16300   285.46156     -6088.2428      0             -6070.5683     -707.98273    
     16400   308.58752     -6089.6499      0             -6070.5435     -727.74176    
     16500   291.9864      -6088.5611      0             -6070.4826     -766.28845    
     16600   315.37624     -6090.0562      0             -6070.5295     -760.94762    
     16700   283.45888     -6087.9173      0             -6070.3667     -728.37104    
     16800   311.03971     -6089.6029      0             -6070.3447     -713.02552    
     16900   296.29925     -6088.5597      0             -6070.2142     -756.00809    
     17000   304.96455     -6089.144       0             -6070.2619     -792.63544    
     17100   290.09402     -6088.3181      0             -6070.3568     -762.54727    
     17200   300.34314     -6088.8117      0             -6070.2157     -728.67504    
     17300   289.96938     -6088.021       0             -6070.0674     -735.69427    
     17400   307.29711     -6088.9549      0             -6069.9284     -778.95853    
     17500   304.71636     -6088.9476      0             -6070.0809     -809.47899    
     17600   288.47584     -6087.7943      0             -6069.9332     -745.22893    
     17700   296.65647     -6088.2617      0             -6069.8941     -710.09424    
     17800   303.8161      -6088.5865      0             -6069.7755     -770.95372    
     17900   305.67838     -6088.7775      0             -6069.8512     -829.17052    
     18000   299.92739     -6088.3298      0             -6069.7597     -780.94244    
     18100   293.66388     -6087.9047      0             -6069.7223     -701.6287     
     18200   313.52148     -6088.9998      0             -6069.588      -755.19462    
     18300   306.89117     -6088.5972      0             -6069.5959     -830.10836    
     18400   301.26033     -6088.1826      0             -6069.5299     -807.68381    
     18500   303.03448     -6088.3388      0             -6069.5762     -727.31855    
     18600   308.19886     -6088.5654      0             -6069.4831     -746.2859     
     18700   297.30476     -6087.716       0             -6069.3082     -812.30385    
     18800   287.97652     -6087.0355      0             -6069.2053     -815.21338    
     18900   296.32331     -6087.6459      0             -6069.2988     -759.01043    
     19000   289.7146      -6087.1831      0             -6069.2452     -763.21793    
     19100   294.12305     -6087.4632      0             -6069.2524     -804.96913    
     19200   295.84279     -6087.4843      0             -6069.167      -796.51171    
     19300   293.1059      -6087.3008      0             -6069.153      -782.71262    
     19400   299.94918     -6087.558       0             -6068.9864     -767.54704    
     19500   289.28394     -6086.8168      0             -6068.9056     -797.5063     
     19600   292.38789     -6086.9637      0             -6068.8603     -807.85592    
     19700   305.99527     -6087.7481      0             -6068.8022     -787.29221    
     19800   281.91911     -6086.252       0             -6068.7968     -780.75753    
     19900   310.10525     -6087.9709      0             -6068.7706     -816.80311    
     20000   298.49068     -6087.1156      0             -6068.6344     -812.0136     
     20100   306.79227     -6087.6569      0             -6068.6617     -774.36735    
     20200   294.80702     -6086.8894      0             -6068.6362     -800.1626     
     20300   292.80432     -6086.5668      0             -6068.4377     -845.13006    
     20400   295.21738     -6086.641       0             -6068.3625     -811.02643    
     20500   318.63557     -6088.207       0             -6068.4785     -768.22004    
     20600   311.05903     -6087.6833      0             -6068.4239     -819.00693    
     20700   298.9374      -6086.793       0             -6068.2841     -858.74147    
     20800   294.99054     -6086.4359      0             -6068.1714     -827.07435    
     20900   303.37686     -6086.9145      0             -6068.1307     -757.89607    
     21000   290.09555     -6086.0172      0             -6068.0558     -797.93614    
     21100   293.38608     -6086.2051      0             -6068.0399     -888.66132    
     21200   306.15651     -6086.9797      0             -6068.0238     -855.47124    
     21300   301.79295     -6086.5883      0             -6067.9026     -748.42622    
     21400   301.67668     -6086.5009      0             -6067.8224     -784.11061    
     21500   298.32926     -6086.2408      0             -6067.7695     -904.202      
     21600   298.82799     -6086.3221      0             -6067.82       -872.48749    
     21700   309.53083     -6086.8792      0             -6067.7144     -765.84551    
     21800   299.63048     -6086.1105      0             -6067.5586     -780.33889    
     21900   303.77091     -6086.3424      0             -6067.5343     -887.02519    
     22000   301.16933     -6086.1377      0             -6067.4906     -885.8493     
     22100   294.25768     -6085.7345      0             -6067.5154     -809.55054    
     22200   295.70891     -6085.8019      0             -6067.4929     -788.95728    
     22300   303.1299      -6086.0406      0             -6067.2721     -852.54526    
     22400   303.0687      -6085.9629      0             -6067.1982     -878.28718    
     22500   308.30792     -6086.3091      0             -6067.22       -837.92994    
     22600   302.92692     -6085.967       0             -6067.2111     -813.08567    
     22700   294.78364     -6085.3211      0             -6067.0694     -850.38395    
     22800   288.84776     -6084.9194      0             -6067.0353     -865.33336    
     22900   303.86456     -6085.7935      0             -6066.9795     -861.14407    
     23000   310.71849     -6086.2797      0             -6067.0414     -842.42106    
     23100   290.95861     -6084.9401      0             -6066.9252     -839.50137    
     23200   293.30002     -6084.9082      0             -6066.7483     -854.82757    
     23300   301.54569     -6085.2514      0             -6066.581      -853.39956    
     23400   302.52871     -6085.4118      0             -6066.6806     -860.76898    
     23500   318.52845     -6086.4246      0             -6066.7027     -856.99063    
     23600   309.56599     -6085.7187      0             -6066.5517     -876.46141    
     23700   289.79302     -6084.3773      0             -6066.4346     -850.63847    
     23800   296.65624     -6084.8174      0             -6066.4498     -838.69469    
     23900   291.62128     -6084.4222      0             -6066.3663     -877.23535    
     24000   308.28881     -6085.3738      0             -6066.2859     -896.08703    
     24100   300.86834     -6084.8496      0             -6066.2211     -859.07247    
     24200   305.9372      -6085.176       0             -6066.2338     -831.47212    
     24300   304.47606     -6084.9701      0             -6066.1183     -880.59976    
     24400   292.78737     -6084.1727      0             -6066.0446     -930.05007    
     24500   308.21553     -6085.0111      0             -6065.9277     -861.26545    
     24600   302.32061     -6084.563       0             -6065.8446     -804.97388    
     24700   299.57204     -6084.3919      0             -6065.8437     -887.87586    
     24800   285.55051     -6083.4348      0             -6065.7547     -964.35338    
     24900   299.30395     -6084.2723      0             -6065.7407     -874.85984    
     25000   291.96995     -6083.7741      0             -6065.6966     -795.99721    
     25100   297.29779     -6084.0393      0             -6065.6319     -895.03046    
     25200   284.21152     -6083.0414      0             -6065.4442     -973.08332    
     25300   294.84493     -6083.6222      0             -6065.3667     -887.22531    
     25400   291.53999     -6083.3395      0             -6065.2887     -815.23875    
     25500   291.08582     -6083.3561      0             -6065.3334     -877.97553    
     25600   296.25321     -6083.6609      0             -6065.3182     -976.03583    
     25700   304.29167     -6084.0283      0             -6065.1879     -915.56887    
     25800   300.3884      -6083.6852      0             -6065.0865     -819.53053    
     25900   300.87497     -6083.6333      0             -6065.0045     -865.0323     
     26000   296.11243     -6083.2818      0             -6064.9479     -956.07112    
     26100   301.31346     -6083.4748      0             -6064.8188     -944.4371     
     26200   299.69121     -6083.3515      0             -6064.796      -851.38929    
     26300   301.56012     -6083.494       0             -6064.8227     -860.26902    
     26400   303.5584      -6083.4826      0             -6064.6876     -947.72047    
     26500   328.76999     -6084.8997      0             -6064.5437     -943.55859    
     26600   303.74458     -6083.3813      0             -6064.5747     -885.48513    
     26700   298.01625     -6083.0109      0             -6064.559      -867.64892    
     26800   299.63326     -6082.892       0             -6064.34       -923.41538    
     26900   308.08041     -6083.358       0             -6064.283      -939.50376    
     27000   300.39177     -6082.8993      0             -6064.3003     -908.60355    
     27100   300.578       -6082.9272      0             -6064.3167     -896.77245    
     27200   301.04413     -6082.8001      0             -6064.1607     -929.9723     
     27300   300.03794     -6082.5206      0             -6063.9436     -921.96809    
     27400   303.02686     -6082.664       0             -6063.902      -904.70308    
     27500   298.69385     -6082.487       0             -6063.9932     -920.58893    
     27600   304.0998      -6082.7439      0             -6063.9154     -960.29004    
     27700   300.08143     -6082.3317      0             -6063.752      -931.55704    
     27800   308.12774     -6082.7356      0             -6063.6577     -881.80979    
     27900   315.78984     -6083.2408      0             -6063.6884     -914.19632    
     28000   289.40449     -6081.4858      0             -6063.5671     -996.02447    
     28100   294.59817     -6081.71        0             -6063.4697     -943.96922    
     28200   290.16663     -6081.3736      0             -6063.4078     -863.3979     
     28300   301.29984     -6082.03        0             -6063.3748     -914.62866    
     28400   299.59713     -6081.8345      0             -6063.2847     -1012.3642    
     28500   304.36596     -6082.1051      0             -6063.2601     -973.73355    
     28600   301.04608     -6081.7983      0             -6063.1589     -869.11284    
     28700   318.67471     -6082.753       0             -6063.022      -897.2784     
     28800   308.73687     -6082.0975      0             -6062.9819     -1001.2792    
     28900   302.43185     -6081.642       0             -6062.9168     -1001.8164    
     29000   294.88644     -6081.0987      0             -6062.8407     -891.70659    
     29100   306.74315     -6081.7714      0             -6062.7792     -886.26357    
     29200   291.621       -6080.7294      0             -6062.6735     -988.00565    
     29300   303.49323     -6081.3801      0             -6062.5892     -1015.8132    
     29400   309.63945     -6081.6963      0             -6062.5248     -933.86986    
     29500   302.43642     -6081.1948      0             -6062.4692     -886.36519    
     29600   304.04034     -6081.1836      0             -6062.3587     -970.0816     
     29700   310.55337     -6081.4433      0             -6062.2152     -1019.2939    
     29800   299.90621     -6080.7497      0             -6062.1808     -954.57087    
     29900   298.38438     -6080.649       0             -6062.1743     -908.31059    
     30000   287.65082     -6079.9057      0             -6062.0957     -945.93857    
     30100   291.35053     -6080.0661      0             -6062.027      -1003.912     
     30200   305.65242     -6080.7688      0             -6061.8441     -980.60576    
     30300   305.59119     -6080.7272      0             -6061.8063     -923.2697     
     30400   289.00281     -6079.6325      0             -6061.7387     -947.53272    
     30500   305.43463     -6080.5598      0             -6061.6486     -1007.0966    
     30600   295.5424      -6079.8022      0             -6061.5035     -991.06103    
     30700   309.57191     -6080.7206      0             -6061.5533     -945.94859    
     30800   296.82481     -6079.881       0             -6061.5029     -960.00607    
     30900   292.80337     -6079.4765      0             -6061.3474     -995.1774     
     31000   300.17602     -6079.86        0             -6061.2745     -985.40193    
     31100   304.90664     -6080.0702      0             -6061.1917     -969.45865    
     31200   302.73354     -6079.8701      0             -6061.1262     -978.7662     
     31300   299.84903     -6079.676       0             -6061.1106     -989.95784    
     31400   287.86192     -6078.7686      0             -6060.9454     -976.16982    
     31500   312.99114     -6080.2372      0             -6060.8582     -964.33485    
     31600   305.39172     -6079.8185      0             -6060.91       -1003.663     
     31700   297.27008     -6079.1543      0             -6060.7487     -1000.4007    
     31800   294.00577     -6078.7927      0             -6060.5892     -977.70758    
     31900   308.52332     -6079.6469      0             -6060.5445     -961.61835    
     32000   311.2915      -6079.8538      0             -6060.58       -1016.2662    
     32100   308.47511     -6079.5058      0             -6060.4064     -1029.2132    
     32200   288.46865     -6078.1813      0             -6060.3206     -960.87561    
     32300   315.45884     -6079.8027      0             -6060.2709     -965.29111    
     32400   300.53072     -6078.8251      0             -6060.2176     -1031.1894    
     32500   308.02603     -6079.0932      0             -6060.0216     -1035.2526    
     32600   302.02419     -6078.7724      0             -6060.0724     -983.19913    
     32700   293.83238     -6078.0854      0             -6059.8925     -964.0499     
     32800   302.50223     -6078.6254      0             -6059.8957     -1027.4223    
     32900   297.84976     -6078.2254      0             -6059.7839     -1044.5916    
     33000   288.00307     -6077.5253      0             -6059.6934     -998.43777    
     33100   282.22075     -6077.0764      0             -6059.6026     -964.09696    
     33200   298.43448     -6077.9539      0             -6059.4762     -1017.1628    
     33300   305.79117     -6078.3819      0             -6059.4487     -1038.0512    
     33400   303.82673     -6078.1898      0             -6059.3782     -1024.1177    
     33500   277.91152     -6076.5502      0             -6059.3431     -1000.5637    
     33600   301.07936     -6077.7945      0             -6059.153      -999.1406     
     33700   296.65215     -6077.4404      0             -6059.073      -1019.6747    
     33800   302.34358     -6077.7401      0             -6059.0203     -1042.8923    
     33900   298.09545     -6077.4096      0             -6058.9529     -1024.6482    
     34000   291.4975      -6076.8613      0             -6058.8131     -1005.4914    
     34100   288.36146     -6076.5812      0             -6058.7271     -1015.3421    
     34200   298.76329     -6077.2387      0             -6058.7406     -1044.2012    
     34300   307.91441     -6077.6837      0             -6058.619      -1044.9395    
     34400   306.43768     -6077.5768      0             -6058.6036     -1017.4329    
     34500   288.54292     -6076.3148      0             -6058.4494     -1012.646     
     34600   301.26414     -6076.9386      0             -6058.2856     -1039.0359    
     34700   293.27313     -6076.378       0             -6058.2198     -1048.7703    
     34800   287.21478     -6075.9727      0             -6058.1896     -1037.4712    
     34900   296.669       -6076.4968      0             -6058.1283     -1033.6426    
     35000   302.77052     -6076.783       0             -6058.0368     -1030.6357    
     35100   304.31787     -6076.7604      0             -6057.9183     -1034.3385    
     35200   309.9996      -6077.0699      0             -6057.8761     -1059.0656    
     35300   304.24617     -6076.63        0             -6057.7924     -1067.256     
     35400   294.2669      -6075.9095      0             -6057.6898     -1020.5946    
     35500   304.35355     -6076.3566      0             -6057.5124     -1021.5474    
     35600   292.01248     -6075.5299      0             -6057.4498     -1080.7282    
     35700   294.97299     -6075.7254      0             -6057.462      -1077.4995    
     35800   303.63965     -6076.183       0             -6057.383      -1021.8153    
     35900   290.36765     -6075.1663      0             -6057.188      -1026.0643    
     36000   287.76661     -6074.9964      0             -6057.1792     -1070.3367    
     36100   298.85535     -6075.5127      0             -6057.0089     -1092.5573    
     36200   297.75858     -6075.4318      0             -6056.9958     -1046.4608    
     36300   305.0239      -6075.8499      0             -6056.9641     -1036.1024    
     36400   301.41191     -6075.4988      0             -6056.8367     -1063.8436    
     36500   301.85266     -6075.299       0             -6056.6096     -1082.9799    
     36600   299.55529     -6075.1774      0             -6056.6302     -1065.5592    
     36700   310.86708     -6075.7497      0             -6056.5022     -1051.5615    
     36800   291.02571     -6074.3892      0             -6056.3702     -1064.3648    
     36900   302.71773     -6075.0686      0             -6056.3257     -1079.7455    
     37000   304.96495     -6075.1586      0             -6056.2765     -1080.0252    
     37100   295.48343     -6074.4695      0             -6056.1744     -1064.7759    
     37200   300.12125     -6074.719       0             -6056.1368     -1074.7142    
     37300   309.11947     -6075.1286      0             -6055.9893     -1080.3714    
     37400   304.38437     -6074.6458      0             -6055.7997     -1070.8252    
     37500   304.00786     -6074.6043      0             -6055.7814     -1076.9131    
     37600   298.84272     -6074.1738      0             -6055.6708     -1092.6917    
     37700   288.44305     -6073.4632      0             -6055.604      -1089.6074    
     37800   301.80376     -6074.2275      0             -6055.5411     -1062.8403    
     37900   297.89934     -6073.942       0             -6055.4974     -1084.3321    
     38000   292.92603     -6073.4718      0             -6055.3351     -1115.304     
     38100   302.09249     -6073.9797      0             -6055.2754     -1093.0069    
     38200   301.32641     -6073.8021      0             -6055.1453     -1052.9782    
     38300   307.66036     -6074.1149      0             -6055.066      -1077.6402    
     38400   301.9842      -6073.6797      0             -6054.9821     -1133.2089    
     38500   297.53491     -6073.2606      0             -6054.8385     -1115.2926    
     38600   297.87875     -6073.1833      0             -6054.7399     -1043.2194    
     38700   306.04755     -6073.6212      0             -6054.6721     -1078.1109    
     38800   292.69894     -6072.7808      0             -6054.6582     -1138.5814    
     38900   308.97366     -6073.6052      0             -6054.4749     -1130.833     
     39000   310.30882     -6073.6239      0             -6054.411      -1053.762     
     39100   300.20347     -6072.9433      0             -6054.356      -1083.7053    
     39200   302.81334     -6072.9809      0             -6054.232      -1145.9243    
     39300   283.0187      -6071.561       0             -6054.0377     -1136.8816    
     39400   304.49142     -6072.8524      0             -6053.9997     -1071.3929    
     39500   300.67159     -6072.5262      0             -6053.9099     -1082.0865    
     39600   302.90244     -6072.5483      0             -6053.7939     -1143.3957    
     39700   306.93224     -6072.7701      0             -6053.7662     -1140.6353    
     39800   314.0692      -6073.175       0             -6053.7292     -1090.5174    
     39900   313.61004     -6073.0076      0             -6053.5903     -1085.0962    
     40000   315.65672     -6073.0301      0             -6053.486      -1133.7464    
     40100   301.65488     -6072.0315      0             -6053.3544     -1147.7029    
     40200   300.58902     -6071.8301      0             -6053.219      -1100.6427    
     40300   316.51723     -6072.6963      0             -6053.0989     -1081.3903    
     40400   296.28016     -6071.3893      0             -6053.0449     -1141.953     
     40500   290.57205     -6070.9203      0             -6052.9293     -1155.0872    
     40600   300.64839     -6071.4743      0             -6052.8595     -1117.3648    
     40700   305.86629     -6071.72        0             -6052.7821     -1083.1826    
     40800   300.02067     -6071.2942      0             -6052.7182     -1140.8048    
     40900   289.7612      -6070.461       0             -6052.5203     -1173.0885    
     41000   294.68719     -6070.696       0             -6052.4503     -1116.0578    
     41100   308.87838     -6071.5223      0             -6052.3979     -1090.493     
     41200   309.44832     -6071.4282      0             -6052.2686     -1156.0211    
     41300   294.5575      -6070.2973      0             -6052.0596     -1173.2279    
     41400   311.20582     -6071.3517      0             -6052.0832     -1108.8278    
     41500   307.56911     -6071.0902      0             -6052.0468     -1109.2484    
     41600   298.94515     -6070.3996      0             -6051.8902     -1165.5586    
     41700   282.65628     -6069.2629      0             -6051.7621     -1169.7758    
     41800   308.07336     -6070.7435      0             -6051.6689     -1121.4003    
     41900   306.95732     -6070.608       0             -6051.6026     -1117.8587    
     42000   302.33437     -6070.1357      0             -6051.4165     -1166.92      
     42100   306.78716     -6070.2891      0             -6051.2942     -1176.7041    
     42200   314.33414     -6070.6896      0             -6051.2274     -1128.571     
     42300   302.9328      -6069.8531      0             -6051.0968     -1121.6567    
     42400   297.27538     -6069.5295      0             -6051.1235     -1169.5098    
     42500   303.98513     -6069.8251      0             -6051.0036     -1186.4987    
     42600   295.49617     -6069.1173      0             -6050.8214     -1137.3095    
     42700   302.99494     -6069.5529      0             -6050.7928     -1127.3021    
     42800   301.80636     -6069.4173      0             -6050.7307     -1172.2864    
     42900   307.23022     -6069.5117      0             -6050.4894     -1202.7257    
     43000   298.20464     -6068.9063      0             -6050.4428     -1146.8878    
     43100   304.89119     -6069.1928      0             -6050.3153     -1128.248     
     43200   307.85406     -6069.3156      0             -6050.2547     -1170         
     43300   303.85472     -6068.9547      0             -6050.1414     -1208.9695    
     43400   309.49931     -6069.247       0             -6050.0842     -1162.0934    
     43500   297.43175     -6068.4104      0             -6049.9948     -1130.0646    
     43600   296.28771     -6068.1509      0             -6049.806      -1167.0979    
     43700   301.6768      -6068.4341      0             -6049.7555     -1211.1999    
     43800   311.97184     -6068.9279      0             -6049.612      -1178.8093    
     43900   299.15763     -6068.0791      0             -6049.5566     -1138.7471    
     44000   303.20035     -6068.166       0             -6049.3932     -1169.5045    
     44100   308.53144     -6068.4919      0             -6049.389      -1206.9545    
     44200   309.11456     -6068.3361      0             -6049.1971     -1185.5843    
     44300   300.96262     -6067.7693      0             -6049.135      -1157.6542    
     44400   296.9713      -6067.3989      0             -6049.0117     -1176.2387    
     44500   298.67725     -6067.4233      0             -6048.9306     -1200.8857    
     44600   308.92292     -6067.9861      0             -6048.859      -1188.3998    
     44700   298.20781     -6067.1454      0             -6048.6817     -1179.3019    
     44800   305.08142     -6067.5078      0             -6048.6185     -1177.5641    
     44900   288.53196     -6066.3364      0             -6048.4717     -1186.5051    
     45000   293.6354      -6066.5138      0             -6048.3332     -1206.2212    
     45100   305.54298     -6067.1856      0             -6048.2677     -1198.5169    
     45200   293.99491     -6066.4285      0             -6048.2256     -1183.2293    
     45300   290.06701     -6066.0604      0             -6048.1007     -1187.7776    
     45400   296.14509     -6066.325       0             -6047.989      -1205.9694    
     45500   294.80264     -6066.1472      0             -6047.8944     -1207.4008    
     45600   293.29414     -6065.9258      0             -6047.7663     -1199.8291    
     45700   295.93905     -6065.9565      0             -6047.6333     -1201.7934    
     45800   287.69253     -6065.3029      0             -6047.4902     -1199.5111    
     45900   292.91756     -6065.574       0             -6047.4378     -1207.8687    
     46000   300.2566      -6065.8844      0             -6047.2939     -1214.2028    
     46100   290.36347     -6065.2282      0             -6047.2502     -1205.8821    
     46200   305.74951     -6066.1153      0             -6047.1847     -1198.2011    
     46300   312.29494     -6066.3126      0             -6046.9766     -1212.452     
     46400   304.68301     -6065.732       0             -6046.8673     -1230.1012    
     46500   316.40065     -6066.3526      0             -6046.7625     -1217.6287    
     46600   301.49846     -6065.3673      0             -6046.6999     -1200.1141    
     46700   304.16258     -6065.4236      0             -6046.5912     -1222.8625    
     46800   295.09094     -6064.6944      0             -6046.4236     -1240.1771    
     46900   310.25605     -6065.5764      0             -6046.3667     -1207.1617    
     47000   305.75561     -6065.2058      0             -6046.2747     -1207.0677    
     47100   294.77016     -6064.3265      0             -6046.0756     -1231.5177    
     47200   294.02487     -6064.2012      0             -6045.9965     -1232.5805    
     47300   306.76322     -6064.8761      0             -6045.8827     -1210.0571    
     47400   294.81611     -6064.0276      0             -6045.7739     -1222.5131    
     47500   297.01516     -6064.0677      0             -6045.6778     -1245.2041    
     47600   296.32969     -6063.8518      0             -6045.5044     -1237.9193    
     47700   291.32545     -6063.4563      0             -6045.4187     -1209.8669    
     47800   294.86709     -6063.5745      0             -6045.3177     -1229.673     
     47900   295.75436     -6063.5801      0             -6045.2683     -1250.7058    
     48000   295.98083     -6063.4556      0             -6045.1297     -1248.5671    
     48100   307.98135     -6064.0897      0             -6045.0208     -1220.0929    
     48200   299.0961      -6063.3781      0             -6044.8594     -1219.9693    
     48300   294.09831     -6063.016       0             -6044.8067     -1267.325     
     48400   306.11356     -6063.5512      0             -6044.5979     -1271.812     
     48500   302.88652     -6063.243       0             -6044.4895     -1201.0413    
     48600   305.45478     -6063.3828      0             -6044.4703     -1215.4831    
     48700   310.72884     -6063.5791      0             -6044.3401     -1280.5457    
     48800   299.12094     -6062.7351      0             -6044.2148     -1288.6741    
     48900   295.1079      -6062.4134      0             -6044.1416     -1219.6071    
     49000   294.96539     -6062.273       0             -6044.01       -1205.7949    
     49100   297.58664     -6062.3339      0             -6043.9086     -1287.9878    
     49200   300.70695     -6062.3535      0             -6043.735      -1305.0573    
     49300   309.32708     -6062.7195      0             -6043.5673     -1222.5814    
     49400   296.7847      -6061.9014      0             -6043.5258     -1208.5016    
     49500   306.89384     -6062.4314      0             -6043.4298     -1291.6055    
     49600   305.05698     -6062.1836      0             -6043.2958     -1313.131     
     49700   301.62381     -6061.947       0             -6043.2718     -1235.1334    
     49800   300.24394     -6061.691       0             -6043.1012     -1217.2518    
     49900   308.89583     -6062.0921      0             -6042.9667     -1275.687     
     50000   291.99965     -6060.8285      0             -6042.7492     -1316.2816    
     50100   299.70771     -6061.2269      0             -6042.6703     -1261.3374    
     50200   305.22368     -6061.5093      0             -6042.6112     -1219.2244    
     50300   295.44998     -6060.8506      0             -6042.5576     -1281.877     
     50400   304.64284     -6061.2524      0             -6042.3902     -1320.1261    
     50500   304.41592     -6061.1274      0             -6042.2793     -1271.5956    
     50600   294.9977      -6060.4094      0             -6042.1444     -1229.3386    
     50700   302.28141     -6060.7009      0             -6041.985      -1274.7176    
     50800   295.27249     -6060.163       0             -6041.881      -1324.3125    
     50900   304.61158     -6060.6674      0             -6041.8072     -1285.6735    
     51000   302.09358     -6060.4258      0             -6041.7215     -1247.7495    
     51100   292.65588     -6059.6631      0             -6041.5431     -1273.5398    
     51200   287.29462     -6059.2421      0             -6041.4541     -1325.4701    
     51300   299.28201     -6059.8029      0             -6041.2727     -1288.7446    
     51400   307.5081      -6060.2562      0             -6041.2167     -1253.7266    
     51500   287.86213     -6058.9382      0             -6041.1151     -1278.3249    
     51600   277.15224     -6058.1891      0             -6041.0291     -1326.5952    
     51700   307.8633      -6059.9601      0             -6040.8985     -1299.1906    
     51800   309.49424     -6059.8574      0             -6040.6949     -1257.4482    
     51900   293.34488     -6058.8102      0             -6040.6476     -1284.0573    
     52000   308.84554     -6059.5876      0             -6040.4652     -1331.8702    
     52100   305.99024     -6059.2602      0             -6040.3146     -1305.8381    
     52200   297.37225     -6058.6729      0             -6040.2609     -1261.1594    
     52300   296.21924     -6058.6177      0             -6040.2771     -1295.5423    
     52400   307.69765     -6059.0954      0             -6040.0442     -1342.2276    
     52500   296.72882     -6058.2564      0             -6039.8842     -1302.7547    
     52600   313.95944     -6059.2042      0             -6039.7652     -1271.4398    
     52700   291.83166     -6057.7041      0             -6039.6351     -1304.4476    
     52800   296.25716     -6057.8361      0             -6039.4932     -1336.4782    
     52900   302.90942     -6058.186       0             -6039.4312     -1309.6663    
     53000   297.42474     -6057.7534      0             -6039.3381     -1275.301     
     53100   293.47398     -6057.3789      0             -6039.2083     -1317.7618    
     53200   297.47047     -6057.4915      0             -6039.0734     -1330.6418    
     53300   297.12063     -6057.3298      0             -6038.9334     -1305.6317    
     53400   306.13825     -6057.801       0             -6038.8462     -1304.0506    
     53500   300.56984     -6057.2686      0             -6038.6586     -1323.3012    
     53600   291.93816     -6056.6682      0             -6038.5927     -1319.4804    
     53700   305.09911     -6057.3603      0             -6038.4699     -1330.9915    
     53800   302.10652     -6056.9607      0             -6038.2556     -1315.7696    
     53900   300.22972     -6056.767       0             -6038.1781     -1313.2663    
     54000   305.28386     -6056.9861      0             -6038.0842     -1322.9286    
     54100   298.57548     -6056.4471      0             -6037.9606     -1333.4564    
     54200   287.07765     -6055.567       0             -6037.7925     -1321.507     
     54300   300.47332     -6056.3559      0             -6037.7519     -1323.8657    
     54400   288.45767     -6055.4508      0             -6037.5907     -1323.1361    
     54500   290.04671     -6055.4197      0             -6037.4613     -1340.907     
     54600   314.86445     -6056.7904      0             -6037.2954     -1333.1033    
     54700   305.17922     -6056.0564      0             -6037.1611     -1333.3506    
     54800   303.09916     -6055.8651      0             -6037.0985     -1337.1366    
     54900   296.89923     -6055.3781      0             -6036.9954     -1339.2046    
     55000   292.55973     -6054.9756      0             -6036.8616     -1340.2541    
     55100   304.9325      -6055.663       0             -6036.7829     -1353.45      
     55200   298.98741     -6055.1251      0             -6036.6131     -1332.985     
     55300   290.04301     -6054.3768      0             -6036.4186     -1325.0769    
     55400   312.54441     -6055.6494      0             -6036.2981     -1356.2254    
     55500   309.05391     -6055.2619      0             -6036.1267     -1362.3025    
     55600   315.09355     -6055.5152      0             -6036.006      -1335.4983    
     55700   316.13838     -6055.5985      0             -6036.0246     -1325.0008    
     55800   300.97449     -6054.4608      0             -6035.8257     -1368.8486    
     55900   286.74334     -6053.4417      0             -6035.6878     -1368.3973    
     56000   298.54888     -6054.0465      0             -6035.5616     -1334.5414    
     56100   290.03866     -6053.46        0             -6035.5021     -1327.7358    
     56200   304.2102      -6054.1694      0             -6035.3341     -1381.7067    
     56300   294.01173     -6053.3556      0             -6035.1517     -1383.9012    
     56400   297.33458     -6053.3786      0             -6034.9689     -1338.0893    
     56500   297.49744     -6053.3766      0             -6034.9568     -1327.5976    
     56600   293.37994     -6053.0249      0             -6034.8601     -1378.153     
     56700   300.07066     -6053.225       0             -6034.646      -1391.4305    
     56800   310.21446     -6053.7645      0             -6034.5574     -1353.8326    
     56900   308.37057     -6053.5297      0             -6034.4368     -1324.5823    
     57000   310.36811     -6053.5728      0             -6034.3562     -1391.0427    
     57100   298.99986     -6052.6055      0             -6034.0928     -1404.7873    
     57200   298.91505     -6052.4844      0             -6033.9769     -1356.7934    
     57300   307.09673     -6052.9564      0             -6033.9423     -1333.9193    
     57400   301.57428     -6052.4941      0             -6033.822      -1393.2243    
     57500   278.63825     -6050.8351      0             -6033.583      -1397.0266    
     57600   295.75094     -6051.7817      0             -6033.4701     -1372.9809    
     57700   290.89318     -6051.3752      0             -6033.3644     -1330.5333    
     57800   312.05027     -6052.6457      0             -6033.325      -1386.3484    
     57900   300.2593      -6051.7178      0             -6033.1271     -1418.6035    
     58000   305.42636     -6051.8385      0             -6032.9278     -1374.7238    
     58100   312.11066     -6052.1565      0             -6032.832      -1336.1433    
     58200   295.57366     -6050.9832      0             -6032.6826     -1392.462     
     58300   291.55454     -6050.6013      0             -6032.5495     -1426.6935    
     58400   287.15258     -6050.198       0             -6032.4188     -1383.8107    
     58500   288.95888     -6050.2069      0             -6032.3159     -1346.8816    
     58600   302.52687     -6050.9857      0             -6032.2546     -1391.0986    
     58700   290.533       -6050.0681      0             -6032.0795     -1435.465     
     58800   305.48118     -6050.7956      0             -6031.8815     -1381.4573    
     58900   302.20504     -6050.4482      0             -6031.7369     -1355.2383    
     59000   303.89427     -6050.4858      0             -6031.67       -1400.4153    
     59100   308.71186     -6050.6272      0             -6031.5131     -1437.6407    
     59200   310.43004     -6050.6315      0             -6031.4111     -1393.6292    
     59300   310.5892      -6050.4965      0             -6031.2662     -1369.4643    
     59400   296.33772     -6049.5161      0             -6031.1682     -1391.9185    
     59500   288.55942     -6048.8452      0             -6030.9789     -1429.9341    
     59600   304.88403     -6049.6661      0             -6030.789      -1407.5464    
     59700   302.13409     -6049.4298      0             -6030.7229     -1376.2426    
     59800   301.86637     -6049.2815      0             -6030.5913     -1407.9885    
     59900   301.8586      -6049.1789      0             -6030.4892     -1433.0314    
     60000   300.8038      -6048.9216      0             -6030.2971     -1418.696     
     60100   295.73069     -6048.5334      0             -6030.223      -1386.9554    
     60200   294.75663     -6048.2291      0             -6029.9791     -1400.0896    
     60300   297.42625     -6048.2638      0             -6029.8485     -1433.0242    
     60400   296.85035     -6048.1801      0             -6029.8004     -1421.4704    
     60500   296.5878      -6048.0459      0             -6029.6825     -1401.6294    
     60600   320.15821     -6049.3802      0             -6029.5574     -1410.4592    
     60700   292.13055     -6047.4639      0             -6029.3765     -1432.054     
     60800   295.83683     -6047.517       0             -6029.2001     -1424.4233    
     60900   311.95245     -6048.3236      0             -6029.0089     -1414.9385    
     61000   280.95333     -6046.3936      0             -6028.9982     -1427.5344    
     61100   298.38206     -6047.3017      0             -6028.8272     -1423.8257    
     61200   302.13279     -6047.435       0             -6028.7283     -1424.965     
     61300   299.47936     -6047.1325      0             -6028.5901     -1436.3688    
     61400   307.64495     -6047.5015      0             -6028.4534     -1431.6915    
     61500   302.60054     -6047.0134      0             -6028.2777     -1421.4101    
     61600   305.76449     -6047.02        0             -6028.0884     -1431.5665    
     61700   299.10964     -6046.509       0             -6027.9894     -1438.597     
     61800   289.74868     -6045.8424      0             -6027.9025     -1443.327     
     61900   290.52355     -6045.7361      0             -6027.7481     -1427.2905    
     62000   312.85605     -6046.9582      0             -6027.5875     -1426.7803    
     62100   311.99109     -6046.8184      0             -6027.5013     -1457.9082    
     62200   289.2775      -6045.2272      0             -6027.3164     -1454.2754    
     62300   303.32206     -6045.9716      0             -6027.1912     -1427.78      
     62400   301.45051     -6045.7112      0             -6027.0468     -1427.8174    
     62500   308.74698     -6046.0106      0             -6026.8943     -1451.5307    
     62600   287.51507     -6044.5721      0             -6026.7704     -1478.7567    
     62700   309.77577     -6045.7928      0             -6026.6129     -1437.596     
     62800   290.63703     -6044.5284      0             -6026.5335     -1413.4061    
     62900   286.70937     -6044.1051      0             -6026.3534     -1473.8455    
     63000   293.91547     -6044.3806      0             -6026.1827     -1474.4304    
     63100   296.74919     -6044.5452      0             -6026.1718     -1431.3021    
     63200   307.5333      -6045.0106      0             -6025.9694     -1429.9485    
     63300   297.85179     -6044.1674      0             -6025.7258     -1469.3957    
     63400   303.40929     -6044.435       0             -6025.6492     -1474.1941    
     63500   304.00482     -6044.3102      0             -6025.4875     -1442.1645    
     63600   300.42974     -6044.0121      0             -6025.4108     -1431.4178    
     63700   304.30998     -6044.1304      0             -6025.2888     -1482.4261    
     63800   312.81523     -6044.4161      0             -6025.048      -1484.0063    
     63900   310.43131     -6044.2427      0             -6025.0222     -1449.6251    
     64000   305.16502     -6043.7804      0             -6024.886      -1441.0511    
     64100   294.30055     -6042.9093      0             -6024.6875     -1480.6442    
     64200   301.18152     -6043.1715      0             -6024.5237     -1501.4104    
     64300   297.82242     -6042.6989      0             -6024.2591     -1449.8325    
     64400   294.03046     -6042.4975      0             -6024.2925     -1453.5496    
     64500   295.33974     -6042.4014      0             -6024.1153     -1496.434     
     64600   301.50613     -6042.6222      0             -6023.9542     -1505.7658    
     64700   292.66783     -6041.9013      0             -6023.7806     -1456.9269    
     64800   299.97785     -6042.3662      0             -6023.7929     -1454.7348    
     64900   306.91117     -6042.5372      0             -6023.5346     -1497.1854    
     65000   298.99641     -6041.9329      0             -6023.4204     -1510.8492    
     65100   295.80699     -6041.469       0             -6023.1539     -1457.8605    
     65200   292.79489     -6041.2211      0             -6023.0925     -1453.5243    
     65300   300.34789     -6041.5585      0             -6022.9623     -1502.3709    
     65400   301.2736      -6041.3987      0             -6022.7452     -1515.5099    
     65500   292.0941      -6040.7841      0             -6022.6989     -1464.9856    
     65600   290.19045     -6040.4247      0             -6022.4574     -1452.4916    
     65700   303.89694     -6041.1848      0             -6022.3689     -1511.6056    
     65800   297.99142     -6040.6224      0             -6022.172      -1514.2847    
     65900   296.1611      -6040.3362      0             -6021.9992     -1473.639     
     66000   307.87967     -6040.9847      0             -6021.9221     -1465.2292    
     66100   305.04044     -6040.6899      0             -6021.8031     -1512.9273    
     66200   301.82465     -6040.3271      0             -6021.6395     -1526.8434    
     66300   299.55512     -6040.0823      0             -6021.5352     -1474.6518    
     66400   311.51651     -6040.6187      0             -6021.3309     -1477.3607    
     66500   294.61421     -6039.4175      0             -6021.1763     -1517.651     
     66600   305.10088     -6039.9261      0             -6021.0356     -1518.5183    
     66700   301.16644     -6039.5332      0             -6020.8863     -1488.0406    
     66800   292.99626     -6038.9035      0             -6020.7625     -1492.88      
     66900   301.3787      -6039.2712      0             -6020.6111     -1521.0145    
     67000   296.24961     -6038.7981      0             -6020.4556     -1513.53      
     67100   284.46946     -6037.8832      0             -6020.2701     -1498.8334    
     67200   291.82286     -6038.2531      0             -6020.1847     -1505.029     
     67300   303.67662     -6038.8311      0             -6020.0288     -1519.881     
     67400   306.38258     -6038.8542      0             -6019.8843     -1513.6749    
     67500   301.29211     -6038.4712      0             -6019.8165     -1507.642     
     67600   300.07668     -6038.1786      0             -6019.5992     -1515.0629    
     67700   295.04863     -6037.6555      0             -6019.3874     -1522.7504    
     67800   293.28528     -6037.4146      0             -6019.2556     -1515.1574    
     67900   295.78224     -6037.4383      0             -6019.1248     -1518.3328    
     68000   310.86326     -6038.2634      0             -6019.0161     -1523.6452    
     68100   306.81467     -6037.906       0             -6018.9094     -1529.2007    
     68200   306.05449     -6037.6633      0             -6018.7137     -1516.2619    
     68300   274.26093     -6035.5638      0             -6018.5828     -1514.5127    
     68400   277.66293     -6035.548       0             -6018.3563     -1540.5248    
     68500   301.73797     -6036.8989      0             -6018.2166     -1532.4502    
     68600   305.38835     -6037.0057      0             -6018.0974     -1513.5622    
     68700   288.83025     -6035.8264      0             -6017.9433     -1534.9782    
     68800   294.5859      -6036.1217      0             -6017.8822     -1541.7589    
     68900   296.56723     -6036.015       0             -6017.6528     -1531.3239    
     69000   311.09871     -6036.759       0             -6017.4971     -1516.6587    
     69100   295.21709     -6035.6581      0             -6017.3795     -1537.6388    
     69200   303.40638     -6036.012       0             -6017.2264     -1560.4836    
     69300   316.70975     -6036.6531      0             -6017.0438     -1526.7955    
     69400   311.16564     -6036.156       0             -6016.89       -1517.1127    
     69500   289.37194     -6034.6395      0             -6016.7229     -1538.1032    
     69600   296.64444     -6034.9388      0             -6016.5719     -1566.68      
     69700   297.49671     -6034.8275      0             -6016.4079     -1539.182     
     69800   306.16427     -6035.2169      0             -6016.2605     -1507.6555    
     69900   311.52071     -6035.4842      0             -6016.1962     -1534.8502    
     70000   301.25965     -6034.675       0             -6016.0223     -1595.839     
     70100   305.7788      -6034.776       0             -6015.8435     -1539.1942    
     70200   300.03091     -6034.3071      0             -6015.7305     -1515.0399    
     70300   311.60908     -6034.7865      0             -6015.493      -1551.2247    
     70400   291.21939     -6033.3673      0             -6015.3363     -1586.6539    
     70500   304.82495     -6034.0787      0             -6015.2053     -1573.0043    
     70600   304.26305     -6033.9787      0             -6015.1401     -1510.1592    
     70700   300.43627     -6033.5698      0             -6014.9681     -1551.1934    
     70800   299.47048     -6033.3559      0             -6014.814      -1596.2689    
     70900   313.73185     -6034.0607      0             -6014.6358     -1574.4376    
     71000   310.64286     -6033.7127      0             -6014.479      -1520.4538    
     71100   297.17516     -6032.6722      0             -6014.2724     -1558.7201    
     71200   296.06134     -6032.5178      0             -6014.187      -1595.5937    
     71300   297.00579     -6032.3544      0             -6013.9651     -1585.2467    
     71400   310.63401     -6033.0645      0             -6013.8314     -1534.3955    
     71500   295.02936     -6032.0128      0             -6013.7459     -1544.5216    
     71600   283.50824     -6031.1182      0             -6013.5646     -1619.9828    
     71700   305.935       -6032.3215      0             -6013.3794     -1577.82      
     71800   286.33041     -6030.9468      0             -6013.2185     -1537.3643    
     71900   308.01454     -6032.1524      0             -6013.0815     -1567.3455    
     72000   296.0574      -6031.2692      0             -6012.9386     -1609.667     
     72100   308.15642     -6031.7982      0             -6012.7185     -1585.973     
     72200   293.76304     -6030.8059      0             -6012.6174     -1547.6201    
     72300   298.96342     -6031.0164      0             -6012.5059     -1581.145     
     72400   304.47346     -6031.1677      0             -6012.316      -1611.2835    
     72500   308.93105     -6031.2318      0             -6012.1041     -1588.4732    
     72600   305.42817     -6030.8841      0             -6011.9734     -1553.7404    
     72700   288.58731     -6029.7425      0             -6011.8744     -1598.772     
     72800   309.28362     -6030.9136      0             -6011.7642     -1606.2228    
     72900   288.052       -6029.4079      0             -6011.573      -1596.0081    
     73000   300.56149     -6029.9867      0             -6011.3772     -1558.5484    
     73100   307.44943     -6030.2565      0             -6011.2206     -1587.5117    
     73200   298.90567     -6029.582       0             -6011.0751     -1620.0824    
     73300   301.97104     -6029.6194      0             -6010.9227     -1594.5916    
     73400   309.71462     -6029.9464      0             -6010.7703     -1580.6452    
     73500   290.95863     -6028.6422      0             -6010.6273     -1592.0877    
     73600   287.57321     -6028.3236      0             -6010.5183     -1621.698     
     73700   294.72861     -6028.5498      0             -6010.3015     -1595.5993    
     73800   299.76875     -6028.6452      0             -6010.0848     -1581.2026    
     73900   305.95871     -6028.8448      0             -6009.9012     -1589.8854    
     74000   288.99613     -6027.6362      0             -6009.7429     -1636.7761    
     74100   313.0893      -6029.0696      0             -6009.6845     -1603.0226    
     74200   315.6124      -6029.0777      0             -6009.5364     -1595.1367    
     74300   297.05631     -6027.7761      0             -6009.3837     -1611.3399    
     74400   305.82363     -6028.1256      0             -6009.1904     -1607.4749    
     74500   304.17708     -6027.8678      0             -6009.0345     -1626.2904    
     74600   295.95904     -6027.1401      0             -6008.8156     -1597.7059    
     74700   290.28405     -6026.6405      0             -6008.6674     -1615.9868    
     74800   295.59673     -6026.8366      0             -6008.5345     -1612.0054    
     74900   301.8526      -6027.1285      0             -6008.4391     -1626.0217    
     75000   302.77204     -6026.9612      0             -6008.2149     -1617.9571    
     75100   294.90585     -6026.2975      0             -6008.0382     -1617.2178    
     75200   311.04442     -6027.1316      0             -6007.8731     -1612.8369    
     75300   296.49462     -6026.0984      0             -6007.7407     -1619.4805    
     75400   302.9043      -6026.33        0             -6007.5755     -1640.6501    
     75500   303.96926     -6026.2799      0             -6007.4594     -1617.4906    
     75600   294.55815     -6025.5293      0             -6007.2916     -1607.0288    
     75700   302.9495      -6025.87        0             -6007.1127     -1611.2402    
     75800   300.39847     -6025.5234      0             -6006.9241     -1652.9336    
     75900   309.20775     -6025.9164      0             -6006.7716     -1634.0706    
     76000   311.48814     -6025.8395      0             -6006.5535     -1603.3012    
     76100   298.94338     -6024.9627      0             -6006.4534     -1625.7171    
     76200   299.4441      -6024.816       0             -6006.2757     -1663.0301    
     76300   283.92574     -6023.7415      0             -6006.162      -1646.0264    
     76400   288.76505     -6023.8819      0             -6006.0028     -1599.3328    
     76500   312.49503     -6025.132       0             -6005.7836     -1621.8491    
     76600   307.53691     -6024.6645      0             -6005.6231     -1671.534     
     76700   307.76452     -6024.5249      0             -6005.4695     -1656.9023    
     76800   285.87294     -6023.0288      0             -6005.3288     -1603.0714    
     76900   302.51586     -6023.9408      0             -6005.2104     -1624.7865    
     77000   309.43652     -6024.2883      0             -6005.1293     -1670.0439    
     77100   301.041       -6023.4285      0             -6004.7893     -1663.5711    
     77200   289.38386     -6022.5748      0             -6004.6574     -1611.6183    
     77300   295.53767     -6022.8069      0             -6004.5085     -1621.3064    
     77400   298.43924     -6022.8281      0             -6004.3501     -1679.9758    
     77500   316.97243     -6023.818       0             -6004.1924     -1679.1642    
     77600   296.20048     -6022.4035      0             -6004.0641     -1621.8029    
     77700   301.12429     -6022.5533      0             -6003.909      -1623.288     
     77800   299.96358     -6022.2733      0             -6003.7009     -1677.5403    
     77900   307.91335     -6022.5826      0             -6003.518      -1681.4581    
     78000   304.25974     -6022.1599      0             -6003.3215     -1633.561     
     78100   292.71665     -6021.2943      0             -6003.1706     -1629.7779    
     78200   299.22917     -6021.5884      0             -6003.0614     -1676.6703    
     78300   305.80913     -6021.7654      0             -6002.8311     -1691.4048    
     78400   296.44264     -6021.0367      0             -6002.6823     -1638.7255    
     78500   294.63907     -6020.7854      0             -6002.5426     -1637.2473    
     78600   276.65207     -6019.4635      0             -6002.3344     -1677.0183    
     78700   307.77054     -6021.175       0             -6002.1192     -1689.0521    
     78800   303.19156     -6020.8269      0             -6002.0546     -1660.5487    
     78900   303.83857     -6020.7847      0             -6001.9723     -1645.0627    
     79000   298.70388     -6020.2848      0             -6001.7904     -1685.3088    
     79100   280.3345      -6018.8816      0             -6001.5245     -1683.3749    
     79200   294.61347     -6019.5767      0             -6001.3355     -1657.0956    
     79300   293.14997     -6019.3254      0             -6001.1749     -1658.5179    
     79400   304.54816     -6019.8488      0             -6000.9925     -1681.7504    
     79500   286.37002     -6018.5464      0             -6000.8156     -1688.0203    
     79600   307.3638      -6019.7729      0             -6000.7422     -1669.9383    
     79700   307.59485     -6019.6715      0             -6000.6266     -1674.2819    
     79800   304.01026     -6019.28        0             -6000.4571     -1684.778     
     79900   284.35339     -6017.7632      0             -6000.1573     -1686.907     
     80000   315.7324      -6019.498       0             -5999.9492     -1676.2347    
     80100   302.55304     -6018.6787      0             -5999.946      -1674.918     
     80200   297.43294     -6018.1905      0             -5999.7747     -1702.8169    
     80300   294.58147     -6017.8074      0             -5999.5682     -1691.2753    
     80400   289.4704      -6017.3038      0             -5999.3811     -1678.9358    
     80500   286.08163     -6016.9663      0             -5999.2534     -1677.515     
     80600   306.31234     -6017.9871      0             -5999.0216     -1714.5953    
     80700   299.25717     -6017.3093      0             -5998.7806     -1691.164     
     80800   281.45884     -6016.0723      0             -5998.6456     -1679.6944    
     80900   315.40499     -6018.092       0             -5998.5636     -1704.4808    
     81000   309.42573     -6017.5541      0             -5998.3958     -1705.9332    
     81100   301.57519     -6016.9575      0             -5998.2853     -1700.1951    
     81200   290.87555     -6016.0752      0             -5998.0655     -1679.3088    
     81300   302.85753     -6016.5614      0             -5997.8098     -1700.8467    
     81400   291.83507     -6015.7515      0             -5997.6824     -1716.7084    
     81500   298.10261     -6015.972       0             -5997.5148     -1706.2846    
     81600   283.19469     -6014.9032      0             -5997.369      -1697.0806    
     81700   307.83327     -6016.2437      0             -5997.184      -1700.5332    
     81800   293.74549     -6015.2004      0             -5997.013      -1717.0563    
     81900   300.79583     -6015.4943      0             -5996.8704     -1710.762     
     82000   307.49797     -6015.6788      0             -5996.6399     -1701.8001    
     82100   293.30595     -6014.6147      0             -5996.4545     -1706.8194    
     82200   304.17196     -6015.1492      0             -5996.3162     -1727.6879    
     82300   302.71693     -6014.9013      0             -5996.1584     -1723.0339    
     82400   296.91878     -6014.4064      0             -5996.0225     -1704.994     
     82500   304.86232     -6014.7121      0             -5995.8364     -1718.7003    
     82600   311.31589     -6014.8467      0             -5995.5714     -1714.1448    
     82700   314.12659     -6014.9092      0             -5995.4599     -1716.087     
     82800   312.86512     -6014.6945      0             -5995.3232     -1726.9409    
     82900   291.03294     -6013.1824      0             -5995.163      -1724.9361    
     83000   304.40548     -6013.7934      0             -5994.9459     -1713.2023    
     83100   302.13465     -6013.5417      0             -5994.8349     -1720.1549    
     83200   309.04775     -6013.8068      0             -5994.6719     -1736.2472    
     83300   309.62996     -6013.567       0             -5994.3961     -1728.852     
     83400   291.52573     -6012.2669      0             -5994.2169     -1710.5793    
     83500   300.66161     -6012.7185      0             -5994.1028     -1713.1106    
     83600   303.62654     -6012.7488      0             -5993.9496     -1750.26      
     83700   292.24217     -6011.8812      0             -5993.7869     -1746.5913    
     83800   293.57488     -6011.7526      0             -5993.5757     -1711.52      
     83900   299.77739     -6011.9346      0             -5993.3737     -1704.1432    
     84000   303.21946     -6011.9789      0             -5993.2048     -1758.528     
     84100   313.64687     -6012.4242      0             -5993.0046     -1762.5761    
     84200   307.72164     -6011.9229      0             -5992.8701     -1712.9455    
     84300   301.24371     -6011.3853      0             -5992.7336     -1710.7707    
     84400   289.65986     -6010.5349      0             -5992.6004     -1761.4982    
     84500   296.90834     -6010.7654      0             -5992.3821     -1776.2995    
     84600   289.85345     -6010.126       0             -5992.1796     -1724.5247    
     84700   298.59211     -6010.4596      0             -5991.9721     -1709.3986    
     84800   292.843       -6009.9766      0             -5991.8451     -1749.7246    
     84900   302.25091     -6010.3761      0             -5991.662      -1784.1828    
     85000   276.40907     -6008.6263      0             -5991.5123     -1742.3865    
     85100   312.73964     -6010.7542      0             -5991.3907     -1712.7562    
     85200   310.86325     -6010.4438      0             -5991.1965     -1744.8046    
[...]
    268700   306.98884     -5922.1745      0             -5903.1671     -437.7198     
    268800   306.69408     -5922.1676      0             -5903.1784     -470.66298    
    268900   296.31402     -5921.5266      0             -5903.1802     -501.87103    
    269000   292.43356     -5921.1256      0             -5903.0194     -492.30718    
    269100   290.52979     -5921.0475      0             -5903.0592     -458.64057    
    269200   300.14904     -5921.6985      0             -5903.1146     -437.39273    
    269300   291.80607     -5921.2775      0             -5903.2101     -472.33479    
    269400   297.43307     -5921.4527      0             -5903.0369     -458.76553    
    269500   300.2416      -5921.7095      0             -5903.1198     -428.96001    
    269600   297.94882     -5921.6662      0             -5903.2186     -450.43741    
    269700   298.07118     -5921.5479      0             -5903.0927     -486.06062    
    269800   299.64945     -5921.6539      0             -5903.1009     -475.8911     
    269900   300.72245     -5921.7586      0             -5903.1392     -460.83765    
    270000   302.12421     -5921.749       0             -5903.0428     -461.20955    
    270100   302.91535     -5921.7628      0             -5903.0076     -501.21333    
    270200   298.62921     -5921.5655      0             -5903.0757     -463.86999    
    270300   294.24876     -5921.2695      0             -5903.0509     -420.89772    
    270400   307.42604     -5921.95        0             -5902.9155     -461.07729    
    270500   310.25017     -5922.1423      0             -5902.9329     -491.46715    
    270600   305.80365     -5921.8321      0             -5902.8981     -465.94367    
    270700   307.5682      -5921.9703      0             -5902.9271     -454.86912    
    270800   303.14269     -5921.6883      0             -5902.919      -512.20937    
    270900   305.75291     -5921.8181      0             -5902.8872     -448.23845    
    271000   301.06995     -5921.5885      0             -5902.9476     -433.42444    
    271100   304.68145     -5921.7369      0             -5902.8723     -471.23214    
    271200   308.32239     -5922.0633      0             -5902.9733     -480.221      
    271300   307.15425     -5921.9778      0             -5902.9602     -499.94711    
    271400   297.07387     -5921.4127      0             -5903.0192     -470.45222    
    271500   295.81088     -5921.2962      0             -5902.9808     -464.62817    
    271600   282.90061     -5920.5344      0             -5903.0184     -454.0345     
    271700   320.03756     -5922.7722      0             -5902.9568     -486.99082    
    271800   308.63789     -5922.1245      0             -5903.015      -486.78905    
    271900   296.7574      -5921.3729      0             -5902.999      -469.12413    
    272000   300.73296     -5921.5124      0             -5902.8923     -469.57716    
    272100   299.03302     -5921.3768      0             -5902.862      -468.70758    
    272200   309.46933     -5922.0068      0             -5902.8458     -493.46063    
    272300   298.21651     -5921.3596      0             -5902.8953     -495.23099    
    272400   303.58689     -5921.7479      0             -5902.9512     -475.32236    
    272500   292.17009     -5920.998       0             -5902.9081     -449.60364    
    272600   295.05387     -5921.0854      0             -5902.817      -452.56589    
    272700   294.69786     -5921.1061      0             -5902.8597     -478.41959    
    272800   306.09558     -5921.8091      0             -5902.857      -474.89587    
    272900   304.26472     -5921.6767      0             -5902.838      -462.70181    
    273000   306.48379     -5921.8029      0             -5902.8268     -466.20152    
    273100   296.57974     -5921.1686      0             -5902.8057     -470.39506    
    273200   292.5068      -5920.8354      0             -5902.7247     -491.99051    
    273300   294.43465     -5920.9125      0             -5902.6824     -460.36606    
    273400   284.55414     -5920.2524      0             -5902.6341     -513.53968    
    273500   296.83881     -5920.9324      0             -5902.5534     -457.98668    
    273600   299.96147     -5921.1591      0             -5902.5868     -408.07452    
    273700   314.94167     -5922.1177      0             -5902.6179     -451.65144    
    273800   304.90732     -5921.4798      0             -5902.6012     -489.21424    
    273900   306.01738     -5921.573       0             -5902.6257     -493.95428    
    274000   308.22849     -5921.6522      0             -5902.5681     -501.93458    
    274100   305.83157     -5921.5687      0             -5902.633      -440.16053    
    274200   287.42645     -5920.3793      0             -5902.5831     -455.2272     
    274300   306.97244     -5921.5806      0             -5902.5742     -421.22483    
    274400   302.29463     -5921.3023      0             -5902.5856     -481.62993    
    274500   313.85903     -5922.1487      0             -5902.716      -483.1153     
    274600   295.71448     -5920.9723      0             -5902.663      -512.0373     
    274700   296.72441     -5921.0373      0             -5902.6655     -530.3147     
    274800   306.29941     -5921.6192      0             -5902.6545     -446.14426    
    274900   299.52014     -5921.1479      0             -5902.6029     -462.27229    
    275000   294.34919     -5920.8798      0             -5902.655      -450.14786    
    275100   303.2931      -5921.2918      0             -5902.5133     -495.56627    
    275200   293.07314     -5920.6523      0             -5902.5065     -453.69366    
    275300   288.06717     -5920.4191      0             -5902.5832     -483.62191    
    275400   307.98031     -5921.7414      0             -5902.6726     -502.73851    
    275500   301.89296     -5921.2826      0             -5902.5907     -474.34667    
    275600   313.49315     -5921.9051      0             -5902.495      -460.13222    
    275700   307.10055     -5921.4771      0             -5902.4627     -481.62971    
    275800   294.39702     -5920.7178      0             -5902.4901     -470.07922    
    275900   306.66669     -5921.374       0             -5902.3865     -492.15748    
    276000   296.3214      -5920.7276      0             -5902.3806     -478.03601    
    276100   304.91972     -5921.247       0             -5902.3677     -446.62472    
    276200   300.33844     -5921.0931      0             -5902.4974     -499.16783    
    276300   316.77693     -5922.1448      0             -5902.5314     -455.58552    
    276400   311.86798     -5921.792       0             -5902.4825     -490.66058    
    276500   292.53038     -5920.5569      0             -5902.4447     -486.45278    
    276600   297.87702     -5920.874       0             -5902.4308     -504.85568    
    276700   300.6871      -5920.9688      0             -5902.3515     -499.4724     
    276800   302.19372     -5921.1505      0             -5902.44       -422.04936    
    276900   301.1795      -5921.0783      0             -5902.4306     -444.15137    
    277000   307.93371     -5921.5256      0             -5902.4597     -510.51247    
    277100   297.15129     -5920.8538      0             -5902.4555     -496.8522     
    277200   303.14702     -5921.3036      0             -5902.5341     -467.56106    
    277300   286.80028     -5920.1034      0             -5902.346      -530.07374    
    277400   304.80017     -5921.1773      0             -5902.3054     -504.42005    
    277500   299.19654     -5920.8501      0             -5902.3252     -462.95374    
    277600   302.10966     -5921.0742      0             -5902.3689     -451.54742    
    277700   295.83872     -5920.6487      0             -5902.3317     -423.76612    
    277800   287.48036     -5920.173       0             -5902.3735     -444.98475    
    277900   293.05368     -5920.6143      0             -5902.4697     -475.18221    
    278000   291.62932     -5920.477       0             -5902.4206     -525.86606    
    278100   298.62941     -5920.8411      0             -5902.3512     -467.86151    
    278200   295.57157     -5920.7616      0             -5902.4611     -460.58085    
    278300   294.15004     -5920.6444      0             -5902.4319     -484.02101    
    278400   308.80955     -5921.4696      0             -5902.3495     -495.47529    
    278500   314.85186     -5921.8605      0             -5902.3663     -429.78691    
    278600   304.65128     -5921.1885      0             -5902.3258     -445.43984    
    278700   305.76893     -5921.2902      0             -5902.3583     -503.32833    
    278800   301.58643     -5920.966       0             -5902.2931     -535.80526    
    278900   286.69404     -5920.0864      0             -5902.3356     -497.61944    
    279000   304.63938     -5921.2538      0             -5902.3919     -451.34022    
    279100   312.98618     -5921.7366      0             -5902.3578     -454.8452     
    279200   295.87261     -5920.5674      0             -5902.2483     -474.22724    
    279300   301.82021     -5921.0052      0             -5902.3178     -477.07069    
    279400   299.50624     -5920.8147      0             -5902.2706     -449.41856    
    279500   296.46722     -5920.5387      0             -5902.1828     -524.21004    
    279600   291.40094     -5920.1058      0             -5902.0635     -529.82468    
    279700   293.12998     -5920.2913      0             -5902.142      -471.42625    
    279800   303.95559     -5921.0495      0             -5902.2299     -443.15328    
    279900   301.59983     -5920.9634      0             -5902.2897     -521.6999     
    280000   300.53493     -5920.8815      0             -5902.2737     -495.83407    
    280100   301.2822      -5920.8224      0             -5902.1683     -490.5383     
    280200   314.06507     -5921.5804      0             -5902.1349     -475.78245    
    280300   307.47933     -5921.2034      0             -5902.1656     -481.42739    
    280400   310.36665     -5921.4525      0             -5902.236      -480.02787    
    280500   308.12767     -5921.4228      0             -5902.3448     -494.74813    
    280600   299.94207     -5920.7892      0             -5902.2181     -478.94221    
    280700   296.71078     -5920.5797      0             -5902.2087     -517.3588     
    280800   304.46516     -5921.0137      0             -5902.1626     -492.97772    
    280900   295.1397      -5920.4168      0             -5902.143      -495.66555    
    281000   301.76446     -5920.8953      0             -5902.2114     -448.1177     
    281100   296.20494     -5920.4354      0             -5902.0957     -478.32525    
    281200   301.973       -5920.733       0             -5902.0362     -496.34943    
    281300   302.76703     -5920.8345      0             -5902.0885     -473.56093    
    281400   308.80983     -5921.1305      0             -5902.0104     -485.34627    
    281500   292.75969     -5920.1952      0             -5902.0688     -506.45948    
    281600   302.26637     -5920.7221      0             -5902.0071     -488.62961    
    281700   306.47697     -5921.0058      0             -5902.03       -508.61168    
    281800   296.26309     -5920.3488      0             -5902.0055     -486.04162    
    281900   295.23135     -5920.3024      0             -5902.0229     -464.50043    
    282000   313.58145     -5921.4583      0             -5902.0427     -502.9144     
    282100   308.88197     -5921.1403      0             -5902.0157     -515.59449    
    282200   297.77508     -5920.4895      0             -5902.0525     -516.63754    
    282300   307.49503     -5921.0498      0             -5902.011      -486.40746    
    282400   291.88059     -5920.1546      0             -5902.0826     -436.40292    
    282500   294.10116     -5920.2406      0             -5902.0311     -477.62403    
    282600   298.59511     -5920.4641      0             -5901.9764     -464.04861    
    282700   280.09087     -5919.3669      0             -5902.0249     -504.35705    
    282800   300.96673     -5920.6099      0             -5901.9753     -505.45074    
    282900   296.43318     -5920.3699      0             -5902.016      -573.46632    
    283000   308.67228     -5920.9952      0             -5901.8836     -510.24418    
    283100   308.04681     -5920.9744      0             -5901.9015     -462.9255     
    283200   293.77222     -5920.0876      0             -5901.8985     -461.72583    
    283300   312.04011     -5921.1573      0             -5901.8371     -470.06285    
    283400   311.16447     -5921.1375      0             -5901.8715     -529.2207     
    283500   295.89955     -5920.2506      0             -5901.9298     -506.47668    
    283600   297.18067     -5920.2576      0             -5901.8575     -469.56665    
    283700   307.99933     -5920.9631      0             -5901.8931     -500.53737    
    283800   296.62359     -5920.1912      0             -5901.8256     -494.42248    
    283900   289.27669     -5919.7541      0             -5901.8434     -438.28223    
    284000   312.44605     -5921.1402      0             -5901.795      -465.19393    
    284100   303.90675     -5920.6667      0             -5901.8502     -519.85198    
    284200   304.13674     -5920.5236      0             -5901.6928     -513.54762    
    284300   287.29074     -5919.5228      0             -5901.7351     -433.9582     
    284400   307.92472     -5920.7545      0             -5901.6891     -464.99705    
    284500   293.91419     -5919.8576      0             -5901.6598     -538.45014    
    284600   300.68822     -5920.2729      0             -5901.6556     -471.25144    
    284700   297.16096     -5919.9959      0             -5901.597      -474.56181    
    284800   294.98135     -5919.8678      0             -5901.6038     -522.90605    
    284900   314.10984     -5920.9873      0             -5901.539      -500.56042    
    285000   291.62671     -5919.6431      0             -5901.5869     -471.7136     
    285100   306.49489     -5920.5502      0             -5901.5734     -453.7783     
    285200   306.98944     -5920.6202      0             -5901.6128     -500.64598    
    285300   287.68936     -5919.3971      0             -5901.5846     -527.96105    
    285400   297.32596     -5919.9045      0             -5901.4953     -478.33329    
    285500   291.86123     -5919.6138      0             -5901.543      -469.25843    
    285600   295.73288     -5919.9486      0             -5901.6381     -492.21974    
    285700   299.26163     -5920.1677      0             -5901.6387     -529.28238    
    285800   288.0562      -5919.3439      0             -5901.5087     -499.16272    
    285900   301.42075     -5920.2515      0             -5901.5888     -443.98281    
    286000   285.4255      -5919.2291      0             -5901.5568     -487.67669    
    286100   294.60782     -5919.8321      0             -5901.5913     -516.9166     
    286200   302.75122     -5920.268       0             -5901.5229     -520.40206    
    286300   294.05509     -5919.6686      0             -5901.462      -495.83191    
    286400   293.41623     -5919.6285      0             -5901.4615     -473.42669    
    286500   294.20725     -5919.6373      0             -5901.4213     -533.3775     
    286600   309.46082     -5920.5797      0             -5901.4192     -461.31411    
    286700   298.13168     -5919.9202      0             -5901.4612     -463.88332    
    286800   296.5354      -5919.8168      0             -5901.4566     -520.0021     
    286900   303.31166     -5920.2188      0             -5901.4391     -540.49681    
    287000   286.20523     -5919.1138      0             -5901.3932     -479.84336    
    287100   289.86226     -5919.3441      0             -5901.3971     -432.86719    
    287200   299.85367     -5919.9406      0             -5901.375      -515.91038    
    287300   309.26223     -5920.6209      0             -5901.4727     -521.34529    
    287400   290.03621     -5919.3767      0             -5901.4189     -476.40488    
    287500   299.25527     -5919.932       0             -5901.4035     -491.34103    
    287600   303.79352     -5920.1901      0             -5901.3806     -529.16889    
    287700   296.45358     -5919.6707      0             -5901.3156     -530.43464    
    287800   295.02577     -5919.4691      0             -5901.2024     -442.49146    
    287900   299.68961     -5919.7894      0             -5901.2339     -430.46314    
    288000   315.30098     -5920.7639      0             -5901.2418     -508.48866    
    288100   299.1266      -5919.7875      0             -5901.2669     -578.05316    
    288200   293.69765     -5919.4503      0             -5901.2658     -519.07537    
    288300   310.10259     -5920.4718      0             -5901.2716     -438.788      
    288400   301.36302     -5919.8713      0             -5901.2122     -483.46448    
    288500   288.69575     -5919.0394      0             -5901.1646     -535.87983    
    288600   297.8135      -5919.5872      0             -5901.1479     -517.86567    
    288700   291.98477     -5919.2585      0             -5901.1801     -460.9398     
    288800   307.02752     -5920.1881      0             -5901.1783     -482.63979    
    288900   313.00417     -5920.5439      0             -5901.1641     -483.86008    
    289000   303.17021     -5919.9846      0             -5901.2136     -543.68135    
    289100   304.96474     -5920.0793      0             -5901.1972     -495.59693    
    289200   298.16265     -5919.6394      0             -5901.1785     -487.22386    
    289300   296.43016     -5919.4964      0             -5901.1428     -497.98839    
    289400   294.16769     -5919.3196      0             -5901.106      -502.9959     
    289500   300.57984     -5919.6969      0             -5901.0863     -514.32642    
    289600   298.05116     -5919.5049      0             -5901.0509     -498.14683    
    289700   298.39009     -5919.4902      0             -5901.0152     -476.84927    
    289800   317.38993     -5920.8214      0             -5901.17       -473.72224    
    289900   300.19742     -5919.7831      0             -5901.1962     -490.36073    
    290000   281.14412     -5918.533       0             -5901.1257     -530.91539    
Loop time of 989.813 on 1 procs for 280000 steps with 840 atoms

Performance: 12.220 ns/day, 1.964 hours/ns, 282.882 timesteps/s, 237.621 katom-step/s
29.6% CPU use with 1 MPI tasks x 1 OpenMP threads

MPI task timing breakdown:
Section |  min time  |  avg time  |  max time  |%varavg| %total
---------------------------------------------------------------
Pair    | 981.91     | 981.91     | 981.91     |   0.0 | 99.20
Bond    | 0.061124   | 0.061124   | 0.061124   |   0.0 |  0.01
Neigh   | 0.29098    | 0.29098    | 0.29098    |   0.0 |  0.03
Comm    | 0.20978    | 0.20978    | 0.20978    |   0.0 |  0.02
Output  | 1.1895     | 1.1895     | 1.1895     |   0.0 |  0.12
Modify  | 5.112      | 5.112      | 5.112      |   0.0 |  0.52
Other   |            | 1.036      |            |       |  0.10

Nlocal:            840 ave         840 max         840 min
Histogram: 1 0 0 0 0 0 0 0 0 0
Nghost:              0 ave           0 max           0 min
Histogram: 1 0 0 0 0 0 0 0 0 0
Neighs:              0 ave           0 max           0 min
Histogram: 1 0 0 0 0 0 0 0 0 0
FullNghs:        88638 ave       88638 max       88638 min
Histogram: 1 0 0 0 0 0 0 0 0 0

Total # of neighbors = 88638
Ave neighs/atom = 105.52143
Ave special neighs/atom = 0
Neighbor list builds = 227
Dangerous builds = 0
Total wall time: 0:17:05
