LAMMPS (7 Feb 2024 - Update 1)
variable T equal 300

units metal
atom_style molecular
boundary p p p
pair_style airebo 2 1 1

read_data cnt_atom.data
Reading data file ...
  orthogonal box = (-40 -40 -14.825508) to (40 40 65.174492)
  4 by 4 by 4 MPI processor grid
  reading atoms ...
  840 atoms
Finding 1-2 1-3 1-4 neighbors ...
  special bond factors lj:    0        0        0       
  special bond factors coul:  0        0        0       
     0 = max # of 1-2 neighbors
     0 = max # of 1-3 neighbors
     0 = max # of 1-4 neighbors
     1 = max # of special neighbors
  special bonds CPU = 0.001 seconds
  read_data CPU = 0.020 seconds
pair_coeff * * CHrcc2.airebo C
Reading airebo potential file CHrcc2.airebo with DATE: 2011-10-25

change_box all x final -40 40 y final -40 40 z final -60 60
Changing box ...
  orthogonal box = (-40 -40 -14.825508) to (40 40 65.174492)
  orthogonal box = (-40 -40 -14.825508) to (40 40 65.174492)
  orthogonal box = (-40 -40 -60) to (40 40 60)

group carbon_atoms type 1
840 atoms in group carbon_atoms
variable carbon_xcm equal -1*xcm(carbon_atoms,x)
variable carbon_ycm equal -1*xcm(carbon_atoms,y)
variable carbon_zcm equal -1*xcm(carbon_atoms,z)
displace_atoms carbon_atoms move ${carbon_xcm} ${carbon_ycm} ${carbon_zcm}
displace_atoms carbon_atoms move 3.60589070686942e-16 ${carbon_ycm} ${carbon_zcm}
displace_atoms carbon_atoms move 3.60589070686942e-16 -3.60589070686942e-16 ${carbon_zcm}
displace_atoms carbon_atoms move 3.60589070686942e-16 -3.60589070686942e-16 -25.1744925714285
Displacing atoms ...

variable zmax equal bound(carbon_atoms,zmax)-10
variable zmin equal bound(carbon_atoms,zmin)+10
region rtop block INF INF INF INF ${zmax} INF
region rtop block INF INF INF INF 15.1744914285715 INF
region rbot block INF INF INF INF INF ${zmin}
region rbot block INF INF INF INF INF -15.1744925714285
region rmid block INF INF INF INF ${zmin} ${zmax}
region rmid block INF INF INF INF -15.1744925714285 ${zmax}
region rmid block INF INF INF INF -15.1744925714285 15.1744914285715

group carbon_top region rtop
180 atoms in group carbon_top
group carbon_bot region rbot
180 atoms in group carbon_bot
group carbon_mid region rmid
480 atoms in group carbon_mid

velocity carbon_mid create ${T} 48455 mom yes rot yes
velocity carbon_mid create 300 48455 mom yes rot yes
fix mynve all nve
compute Tmid carbon_mid temp
fix myber carbon_mid temp/berendsen ${T} ${T} 0.1
fix myber carbon_mid temp/berendsen 300 ${T} 0.1
fix myber carbon_mid temp/berendsen 300 300 0.1
fix_modify myber temp Tmid

fix mysf1 carbon_bot setforce 0 0 0
fix mysf2 carbon_top setforce 0 0 0
velocity carbon_bot set 0 0 0
velocity carbon_top set 0 0 0

variable pos equal v_zmax-v_zmin
fix at1 all ave/time 10 10 100 v_pos file cnt_deflection.dat
fix at2 all ave/time 10 10 100 f_mysf1[3] f_mysf2[3] file edge_force.dat

dump mydmp all atom 5000 dump.lammpstrj

thermo 1000
thermo_modify temp Tmid
WARNING: Temperature for thermo pressure is not for group all (../thermo.cpp:529)

timestep 0.0005
run 100000
Neighbor list info ...
  update: every = 1 steps, delay = 0 steps, check = yes
  max neighbors/atom: 2000, page size: 100000
  master list distance cutoff = 9.816371
  ghost atom cutoff = 9.816371
  binsize = 4.9081855, bins = 17 17 25
  1 neighbor lists, perpetual/occasional/extra = 1 0 0
  (1) pair airebo, perpetual
      attributes: full, newton on, ghost
      pair build: full/bin/ghost
      stencil: full/ghost/bin/3d
      bin: standard
Per MPI rank memory allocation (min/avg/max) = 6.571 | 6.59 | 6.722 Mbytes
   Step          Temp          E_pair         E_mol          TotEng         Press     
         0   300           -6106.4928      0             -6087.9181     -953.97303    
      1000   280.24256     -6091.9438      0             -6074.5924     -334.79139    
      2000   294.8347      -6091.4093      0             -6073.1544     -725.98926    
      3000   286.83443     -6090.7965      0             -6073.037      -558.09967    
      4000   293.94507     -6091.2695      0             -6073.0697     -646.34495    
      5000   305.66902     -6091.9845      0             -6073.0588     -711.98106    
      6000   292.98015     -6091.3611      0             -6073.2211     -597.01549    
      7000   308.91163     -6092.1111      0             -6072.9846     -637.01531    
      8000   302.7139      -6091.7647      0             -6073.022      -631.15927    
      9000   295.65701     -6091.3426      0             -6073.0368     -633.12277    
     10000   285.27464     -6090.7567      0             -6073.0937     -649.80465    
     11000   297.15004     -6091.5603      0             -6073.1621     -645.98982    
     12000   303.34176     -6091.9198      0             -6073.1382     -661.62517    
     13000   307.99667     -6092.2891      0             -6073.2193     -614.88752    
     14000   316.37055     -6092.6898      0             -6073.1016     -617.5362     
     15000   304.02135     -6091.9882      0             -6073.1646     -620.35251    
     16000   295.84189     -6091.4774      0             -6073.1602     -655.7543     
     17000   301.37762     -6091.7256      0             -6073.0656     -630.92584    
     18000   286.60513     -6090.8836      0             -6073.1383     -663.51618    
     19000   283.08595     -6090.6524      0             -6073.1249     -585.45646    
     20000   299.94355     -6091.6627      0             -6073.0915     -646.19671    
     21000   310.13619     -6092.3778      0             -6073.1755     -593.66439    
     22000   309.0583      -6092.2056      0             -6073.07       -684.16759    
     23000   304.35413     -6091.9481      0             -6073.1039     -579.42579    
     24000   301.41693     -6091.809       0             -6073.1466     -680.03506    
     25000   291.21792     -6091.1614      0             -6073.1305     -588.24017    
     26000   306.42069     -6092.1636      0             -6073.1914     -674.23106    
     27000   309.28164     -6092.3343      0             -6073.1849     -634.1541     
     28000   294.94951     -6091.3802      0             -6073.1182     -607.31364    
     29000   301.00604     -6091.764       0             -6073.127      -665.33171    
     30000   298.06        -6091.5719      0             -6073.1173     -586.91843    
     31000   291.92723     -6091.1557      0             -6073.0809     -672.12753    
     32000   293.6231      -6091.2736      0             -6073.0937     -610.32843    
     33000   306.66274     -6092.0923      0             -6073.1051     -651.82581    
     34000   300.79259     -6091.7752      0             -6073.1514     -610.93887    
     35000   310.21145     -6092.4152      0             -6073.2082     -619.63592    
     36000   300.26031     -6091.7177      0             -6073.1269     -613.34765    
     37000   307.78387     -6092.2091      0             -6073.1525     -652.07999    
     38000   300.9975      -6091.7797      0             -6073.1432     -611.44505    
     39000   289.3767      -6091.1046      0             -6073.1877     -644.47377    
     40000   310.82226     -6092.3575      0             -6073.1128     -617.68576    
     41000   303.74419     -6091.9684      0             -6073.1619     -638.19076    
     42000   292.6933      -6091.2102      0             -6073.088      -641.05213    
     43000   282.9598      -6090.699       0             -6073.1794     -622.07192    
     44000   296.76903     -6091.4831      0             -6073.1084     -649.26972    
     45000   301.07706     -6091.8338      0             -6073.1924     -614.26324    
     46000   297.21696     -6091.5597      0             -6073.1574     -629.46412    
     47000   302.91708     -6091.8848      0             -6073.1295     -638.35899    
     48000   304.80166     -6092.029       0             -6073.157      -616.98411    
     49000   306.72147     -6092.1303      0             -6073.1394     -643.99979    
     50000   308.7876      -6092.2315      0             -6073.1127     -614.90152    
     51000   299.09932     -6091.7027      0             -6073.1838     -655.45562    
     52000   306.69226     -6092.139       0             -6073.1499     -616.32359    
     53000   316.48973     -6092.7089      0             -6073.1133     -619.74985    
     54000   304.63432     -6092.0375      0             -6073.1758     -637.23103    
     55000   288.40905     -6091.0558      0             -6073.1988     -622.45283    
     56000   303.17253     -6091.9007      0             -6073.1296     -625.43035    
     57000   304.2292      -6091.9965      0             -6073.1599     -648.85187    
     58000   309.00726     -6092.2488      0             -6073.1164     -615.49282    
     59000   296.72578     -6091.4846      0             -6073.1126     -655.74337    
     60000   298.36858     -6091.562       0             -6073.0883     -627.06071    
     61000   300.68357     -6091.7839      0             -6073.1669     -641.87957    
     62000   296.64599     -6091.4411      0             -6073.074      -618.38807    
     63000   300.11366     -6091.7673      0             -6073.1856     -625.30992    
     64000   302.0797      -6091.8302      0             -6073.1268     -638.12982    
     65000   309.41822     -6092.3714      0             -6073.2136     -624.99915    
     66000   307.37014     -6092.2139      0             -6073.1829     -641.77316    
     67000   295.22056     -6091.4277      0             -6073.1489     -621.64388    
     68000   285.65434     -6090.8054      0             -6073.119      -641.21906    
     69000   292.01286     -6091.2262      0             -6073.146      -632.47256    
     70000   310.94057     -6092.4033      0             -6073.1512     -642.71677    
     71000   285.17385     -6090.7867      0             -6073.13       -612.60898    
     72000   300.97956     -6091.7752      0             -6073.1399     -641.32687    
     73000   297.07761     -6091.5444      0             -6073.1507     -620.33291    
     74000   299.80861     -6091.7433      0             -6073.1805     -647.92527    
     75000   298.77694     -6091.6243      0             -6073.1253     -600.40126    
     76000   298.42186     -6091.5752      0             -6073.0983     -640.80811    
     77000   298.88385     -6091.731       0             -6073.2254     -625.2857     
     78000   301.67927     -6091.8858      0             -6073.2072     -631.59332    
     79000   304.08719     -6091.9154      0             -6073.0877     -627.61165    
     80000   300.55335     -6091.7389      0             -6073.1299     -623.07289    
     81000   291.39001     -6091.2045      0             -6073.1629     -635.70773    
     82000   303.68235     -6091.9682      0             -6073.1655     -616.87436    
     83000   294.08048     -6091.3747      0             -6073.1665     -640.7677     
     84000   293.28171     -6091.3238      0             -6073.1651     -641.43869    
     85000   283.30804     -6090.6152      0             -6073.074      -629.21657    
     86000   300.68665     -6091.7885      0             -6073.1713     -655.36423    
     87000   294.29453     -6091.3369      0             -6073.1155     -602.96291    
     88000   315.79247     -6092.706       0             -6073.1535     -651.54217    
     89000   302.65563     -6091.846       0             -6073.1069     -625.76082    
     90000   312.49811     -6092.4448      0             -6073.0963     -603.85956    
     91000   296.40134     -6091.4903      0             -6073.1384     -650.19807    
     92000   311.33117     -6092.4611      0             -6073.1848     -627.77822    
     93000   291.95066     -6091.2194      0             -6073.1431     -632.46807    
     94000   298.4781      -6091.6602      0             -6073.1797     -647.67968    
     95000   315.76829     -6092.6692      0             -6073.1182     -612.92946    
     96000   316.61399     -6092.7416      0             -6073.1382     -647.38208    
     97000   302.10459     -6091.7823      0             -6073.0773     -616.27477    
     98000   309.02065     -6092.3187      0             -6073.1855     -619.04009    
     99000   294.22035     -6091.3497      0             -6073.1329     -653.85319    
    100000   306.9637      -6092.092       0             -6073.0861     -603.17971    
Loop time of 79.2375 on 64 procs for 100000 steps with 840 atoms

Performance: 54.520 ns/day, 0.440 hours/ns, 1262.029 timesteps/s, 1.060 Matom-step/s
99.5% CPU use with 64 MPI tasks x no OpenMP threads

MPI task timing breakdown:
Section |  min time  |  avg time  |  max time  |%varavg| %total
---------------------------------------------------------------
Pair    | 0.006305   | 8.0777     | 70.718     | 747.0 | 10.19
Bond    | 0.0044489  | 0.0047718  | 0.0060202  |   0.4 |  0.01
Neigh   | 0          | 0          | 0          |   0.0 |  0.00
Comm    | 0.015017   | 1.9798     | 20.34      | 320.0 |  2.50
Output  | 0.0083204  | 0.013033   | 0.017888   |   2.8 |  0.02
Modify  | 1.0276     | 68.415     | 78.522     | 305.1 | 86.34
Other   |            | 0.7471     |            |       |  0.94

Nlocal:         13.125 ave         116 max           0 min
Histogram: 56 0 0 0 0 0 0 0 3 5
Nghost:         71.875 ave         486 max           0 min
Histogram: 48 0 8 0 0 0 0 0 0 8
Neighs:              0 ave           0 max           0 min
Histogram: 64 0 0 0 0 0 0 0 0 0
FullNghs:      1490.62 ave       13163 max           0 min
Histogram: 56 0 0 0 0 0 0 0 3 5

Total # of neighbors = 95400
Ave neighs/atom = 113.57143
Ave special neighs/atom = 0
Neighbor list builds = 0
Dangerous builds = 0

velocity carbon_top set 0 0 0.005
velocity carbon_bot set 0 0 -0.005
run 2800000
Per MPI rank memory allocation (min/avg/max) = 6.579 | 6.723 | 7.727 Mbytes
   Step          Temp          E_pair         E_mol          TotEng         Press     
    100000   306.9637      -6092.092       0             -6073.0861     -603.17971    
    101000   291.86945     -6091.1176      0             -6073.0463     -662.60925    
    102000   311.83139     -6092.308       0             -6073.0008     -610.24256    
    103000   303.70155     -6091.785       0             -6072.9811     -656.43155    
    104000   307.61074     -6091.9953      0             -6072.9494     -626.56463    
    105000   305.77379     -6091.765       0             -6072.8329     -661.08549    
    106000   305.17578     -6091.6769      0             -6072.7818     -640.49313    
    107000   310.10145     -6091.839       0             -6072.6389     -679.25378    
    108000   287.11963     -6090.4452      0             -6072.6681     -637.42983    
    109000   287.64472     -6090.3604      0             -6072.5507     -674.02859    
    110000   303.74151     -6091.3922      0             -6072.5858     -638.10338    
    111000   311.54197     -6091.8073      0             -6072.518      -647.68542    
    112000   287.60242     -6090.2254      0             -6072.4183     -694.45073    
    113000   318.42243     -6092.0617      0             -6072.3464     -631.06562    
    114000   302.98788     -6091.0166      0             -6072.2569     -704.33271    
    115000   302.68312     -6090.9561      0             -6072.2153     -639.87277    
    116000   307.02163     -6091.2285      0             -6072.2191     -700.34946    
    117000   305.65586     -6090.9928      0             -6072.0679     -650.19983    
    118000   304.91472     -6090.9721      0             -6072.0931     -685.89107    
    119000   291.8514      -6089.9777      0             -6071.9075     -683.63066    
    120000   301.31355     -6090.5276      0             -6071.8716     -657.00421    
    121000   302.54467     -6090.5465      0             -6071.8143     -714.71448    
    122000   284.2105      -6089.3301      0             -6071.733      -703.96462    
    123000   300.54697     -6090.2666      0             -6071.6581     -712.92287    
    124000   307.67932     -6090.6664      0             -6071.6162     -665.74794    
    125000   288.17658     -6089.3559      0             -6071.5132     -733.41716    
    126000   306.18018     -6090.4511      0             -6071.4937     -693.38579    
    127000   307.65139     -6090.411       0             -6071.3625     -729.28644    
    128000   308.12659     -6090.3883      0             -6071.3105     -671.33678    
    129000   299.67354     -6089.7589      0             -6071.2045     -764.54418    
    130000   290.55528     -6089.1595      0             -6071.1696     -679.39236    
    131000   304.61315     -6089.9818      0             -6071.1215     -763.66864    
    132000   298.75383     -6089.5507      0             -6071.0531     -693.43106    
    133000   307.97415     -6090.0983      0             -6071.0299     -728.20423    
    134000   302.53423     -6089.5087      0             -6070.7771     -749.41973    
    135000   300.32562     -6089.4077      0             -6070.8129     -719.20739    
    136000   303.60062     -6089.4988      0             -6070.7012     -744.28835    
    137000   293.15281     -6088.7022      0             -6070.5515     -694.962      
    138000   302.13253     -6089.3208      0             -6070.6141     -783.33086    
    139000   293.32145     -6088.6677      0             -6070.5065     -697.77206    
    140000   294.40791     -6088.6174      0             -6070.3889     -787.04694    
    141000   293.11152     -6088.4768      0             -6070.3286     -719.88885    
    142000   304.86186     -6089.1228      0             -6070.2471     -764.41319    
    143000   300.89702     -6088.7595      0             -6070.1293     -739.47033    
    144000   297.42699     -6088.4852      0             -6070.0698     -766.66245    
    145000   300.31962     -6088.636       0             -6070.0416     -760.01406    
    146000   305.67601     -6088.858       0             -6069.9318     -746.08061    
    147000   304.18673     -6088.626       0             -6069.7921     -802.96146    
    148000   298.44696     -6088.2949      0             -6069.8164     -712.80506    
    149000   302.84268     -6088.4463      0             -6069.6957     -816.15093    
    150000   294.17552     -6087.8438      0             -6069.6298     -759.84844    
    151000   303.35896     -6088.3086      0             -6069.5259     -807.20969    
    152000   288.74096     -6087.3377      0             -6069.4601     -759.59225    
    153000   283.9961      -6086.9003      0             -6069.3165     -794.08623    
    154000   298.56252     -6087.7533      0             -6069.2676     -790.61737    
    155000   313.77907     -6088.5608      0             -6069.133      -777.78459    
    156000   295.36518     -6087.3182      0             -6069.0305     -833.49517    
    157000   295.25436     -6087.2595      0             -6068.9786     -771.06762    
    158000   294.0025      -6086.9811      0             -6068.7777     -778.64162    
    159000   298.63339     -6087.1398      0             -6068.6497     -804.71615    
    160000   303.74276     -6087.3947      0             -6068.5883     -812.82786    
    161000   315.29772     -6088.0002      0             -6068.4784     -790.71673    
    162000   289.32068     -6086.3814      0             -6068.4679     -818.03467    
    163000   313.30357     -6087.7924      0             -6068.394      -780.03867    
    164000   286.55999     -6085.9833      0             -6068.2408     -835.47461    
    165000   294.50177     -6086.3669      0             -6068.1326     -809.47855    
    166000   288.0056      -6085.9344      0             -6068.1023     -834.32809    
    167000   305.55497     -6086.9097      0             -6067.9911     -796.45921    
    168000   294.35977     -6086.0929      0             -6067.8674     -816.0036     
    169000   301.39982     -6086.4383      0             -6067.7769     -856.47046    
    170000   300.31343     -6086.3375      0             -6067.7434     -801.23006    
    171000   310.14949     -6086.7923      0             -6067.5892     -840.71595    
    172000   308.61212     -6086.6373      0             -6067.5294     -833.80019    
    173000   302.62235     -6086.1252      0             -6067.3881     -834.50237    
    174000   298.83187     -6085.828       0             -6067.3256     -837.35488    
    175000   302.88449     -6086.0298      0             -6067.2765     -843.27325    
    176000   312.27318     -6086.5139      0             -6067.1793     -823.22833    
    177000   318.30718     -6086.7549      0             -6067.0467     -850.73978    
    178000   302.02334     -6085.6274      0             -6066.9275     -850.71317    
    179000   311.57272     -6086.1227      0             -6066.8315     -864.22821    
    180000   291.25199     -6084.8226      0             -6066.7896     -838.25675    
    181000   297.26084     -6085.0298      0             -6066.6247     -868.16575    
    182000   294.83922     -6084.773       0             -6066.5178     -871.24324    
    183000   301.87767     -6084.9696      0             -6066.2786     -841.23457    
    184000   290.55223     -6084.2018      0             -6066.2121     -873.81104    
    185000   287.2197      -6083.9364      0             -6066.153      -866.9186     
    186000   315.10011     -6085.5567      0             -6066.0471     -863.99578    
    187000   305.76047     -6084.8409      0             -6065.9096     -858.88867    
    188000   300.65323     -6084.3768      0             -6065.7617     -899.33476    
    189000   307.69961     -6084.7754      0             -6065.724      -845.86705    
    190000   307.65578     -6084.6431      0             -6065.5944     -932.96677    
    191000   307.49948     -6084.5277      0             -6065.4887     -846.52452    
    192000   302.18319     -6084.1205      0             -6065.4107     -906.39174    
    193000   297.27328     -6083.6926      0             -6065.2868     -884.16857    
    194000   303.9533      -6083.9692      0             -6065.1497     -875.41813    
    195000   297.39642     -6083.5343      0             -6065.1208     -932.88311    
    196000   305.24472     -6083.8822      0             -6064.9828     -863.18608    
    197000   307.41532     -6083.9748      0             -6064.941      -897.79814    
    198000   291.65714     -6082.8492      0             -6064.791      -933.28346    
    199000   305.32036     -6083.538       0             -6064.6339     -890.89078    
    200000   300.97594     -6083.1614      0             -6064.5263     -922.9157     
    201000   297.5174      -6082.8166      0             -6064.3956     -915.35033    
    202000   288.47208     -6082.1555      0             -6064.2946     -879.12816    
    203000   292.52004     -6082.2302      0             -6064.1186     -959.84806    
    204000   298.61237     -6082.4774      0             -6063.9886     -898.31919    
    205000   312.68726     -6083.2426      0             -6063.8824     -936.06013    
    206000   303.79772     -6082.5585      0             -6063.7487     -917.41896    
    207000   303.56866     -6082.45        0             -6063.6544     -909.70819    
    208000   305.68186     -6082.3945      0             -6063.468      -959.0895     
    209000   307.78987     -6082.5289      0             -6063.4719     -906.04661    
    210000   306.43747     -6082.303       0             -6063.3298     -936.83766    
    211000   298.69278     -6081.6797      0             -6063.186      -943.67235    
    212000   309.45263     -6082.2724      0             -6063.1124     -933.6207     
    213000   292.8009      -6081.1234      0             -6062.9945     -927.91507    
    214000   292.35658     -6080.9224      0             -6062.821      -958.45626    
    215000   292.87122     -6080.9072      0             -6062.7739     -938.3841     
    216000   299.71795     -6081.1065      0             -6062.5493     -978.81898    
    217000   311.5453      -6081.748       0             -6062.4584     -923.14923    
    218000   304.46823     -6081.2185      0             -6062.3672     -990.30826    
    219000   298.79945     -6080.6967      0             -6062.1963     -943.26013    
    220000   315.11007     -6081.5863      0             -6062.076      -974.29619    
    221000   287.05734     -6079.7039      0             -6061.9306     -970.62898    
    222000   295.7456      -6080.1363      0             -6061.8251     -975.04069    
    223000   293.5797      -6079.8994      0             -6061.7222     -972.17822    
    224000   306.15844     -6080.5148      0             -6061.5588     -974.40306    
    225000   288.29808     -6079.2667      0             -6061.4166     -975.91008    
    226000   299.99978     -6079.8831      0             -6061.3084     -998.78044    
    227000   296.07627     -6079.5499      0             -6061.2182     -951.28841    
    228000   309.85864     -6080.2783      0             -6061.0932     -973.70919    
    229000   296.05521     -6079.2346      0             -6060.9041     -993.50413    
    230000   306.88281     -6079.8486      0             -6060.8478     -975.03014    
    231000   296.59806     -6079.0175      0             -6060.6534     -993.55956    
    232000   288.44835     -6078.4091      0             -6060.5496     -969.05838    
    233000   303.06108     -6079.1184      0             -6060.3542     -1008.0662    
    234000   296.32033     -6078.5867      0             -6060.2398     -979.95373    
    235000   299.19134     -6078.6199      0             -6060.0952     -1003.2625    
    236000   290.14986     -6077.9155      0             -6059.9507     -1013.2643    
    237000   298.23044     -6078.2918      0             -6059.8266     -1008.7969    
    238000   297.85911     -6078.159       0             -6059.7168     -1004.0548    
    239000   303.48168     -6078.3953      0             -6059.605      -1009.478     
    240000   303.791       -6078.2651      0             -6059.4557     -992.25925    
    241000   304.14711     -6078.1253      0             -6059.2938     -1036.747     
    242000   297.21408     -6077.593       0             -6059.1908     -1014.723     
    243000   309.93906     -6078.1764      0             -6058.9863     -1015.6083    
    244000   295.52271     -6077.144       0             -6058.8465     -1024.7272    
    245000   283.54965     -6076.2116      0             -6058.6555     -1022.1411    
    246000   306.7595      -6077.5434      0             -6058.5502     -1035.6791    
    247000   304.123       -6077.2004      0             -6058.3705     -1049.654     
    248000   301.85254     -6076.9141      0             -6058.2247     -1013.5082    
    249000   305.23177     -6077.0399      0             -6058.1413     -1058.9152    
    250000   292.87533     -6076.1214      0             -6057.9879     -1016.636     
    251000   298.73687     -6076.3741      0             -6057.8776     -1044.3747    
    252000   312.92144     -6077.0689      0             -6057.6941     -1064.3295    
    253000   293.42239     -6075.7729      0             -6057.6055     -1034.6185    
    254000   305.6199      -6076.398       0             -6057.4754     -1060.6705    
    255000   291.16085     -6075.2968      0             -6057.2694     -1054.3561    
    256000   300.97188     -6075.7897      0             -6057.1548     -1032.4244    
    257000   299.69767     -6075.4681      0             -6056.9122     -1073.5837    
    258000   300.44565     -6075.3804      0             -6056.7781     -1023.0259    
    259000   298.13434     -6075.1174      0             -6056.6583     -1100.7458    
    260000   289.723       -6074.4874      0             -6056.549      -1046.4994    
    261000   296.93561     -6074.7976      0             -6056.4126     -1080.1972    
    262000   315.69676     -6075.8248      0             -6056.2783     -1064.688     
    263000   303.95884     -6074.885       0             -6056.0653     -1059.4001    
    264000   306.55624     -6074.9702      0             -6055.9896     -1079.56      
    265000   305.82437     -6074.706       0             -6055.7707     -1078.8166    
    266000   303.23879     -6074.4118      0             -6055.6366     -1063.859     
    267000   288.40215     -6073.3174      0             -6055.4609     -1104.7105    
    268000   304.00027     -6074.0678      0             -6055.2455     -1073.9843    
    269000   306.84195     -6074.2022      0             -6055.2039     -1087.6514    
    270000   301.71115     -6073.6243      0             -6054.9437     -1096.1762    
    271000   307.82422     -6073.8681      0             -6054.809      -1075.2952    
    272000   297.17405     -6073.1133      0             -6054.7136     -1097.323     
    273000   302.2799      -6073.3281      0             -6054.6123     -1107.7895    
    274000   306.32558     -6073.4153      0             -6054.449      -1072.2176    
    275000   310.17731     -6073.5526      0             -6054.3478     -1133.0656    
    276000   311.13887     -6073.4138      0             -6054.1494     -1085.5843    
    277000   289.51956     -6071.865       0             -6053.9392     -1123.8181    
    278000   307.8411      -6072.816       0             -6053.7558     -1112.4012    
    279000   312.87928     -6072.9616      0             -6053.5895     -1106.5334    
    280000   311.93811     -6072.7324      0             -6053.4186     -1116.0797    
    281000   304.85118     -6072.1698      0             -6053.2947     -1140.2147    
    282000   307.21265     -6072.2256      0             -6053.2044     -1091.479     
    283000   292.36975     -6071.13        0             -6053.0278     -1154.2864    
    284000   311.04346     -6072.1491      0             -6052.8907     -1103.9394    
    285000   301.10819     -6071.3109      0             -6052.6676     -1126.073     
    286000   297.49239     -6070.8587      0             -6052.4393     -1144.7627    
    287000   311.29982     -6071.5928      0             -6052.3185     -1111.379     
    288000   315.72128     -6071.7034      0             -6052.1554     -1142.8592    
    289000   304.39713     -6070.7546      0             -6051.9077     -1149.8377    
    290000   299.22765     -6070.2997      0             -6051.7728     -1113.4443    
    291000   290.42555     -6069.6289      0             -6051.647      -1161.0882    
    292000   304.61666     -6070.3162      0             -6051.4557     -1131.899     
    293000   293.0985      -6069.4596      0             -6051.3122     -1146.2549    
    294000   288.3719      -6069.0064      0             -6051.1516     -1161.6047    
    295000   293.82645     -6069.1978      0             -6051.0053     -1141.0687    
    296000   295.49208     -6069.0881      0             -6050.7925     -1170.9986    
    297000   298.50131     -6069.0773      0             -6050.5954     -1157.5983    
    298000   288.73026     -6068.3446      0             -6050.4677     -1142.1492    
    299000   296.40341     -6068.5954      0             -6050.2434     -1172.9053    
    300000   285.2308      -6067.7335      0             -6050.0733     -1140.8018    
    301000   307.52036     -6069.0182      0             -6049.9779     -1182.3977    
    302000   297.05067     -6068.1791      0             -6049.7871     -1161.2033    
    303000   301.26132     -6068.2981      0             -6049.6453     -1160.1274    
    304000   288.90763     -6067.3082      0             -6049.4203     -1194.0683    
    305000   288.81455     -6067.1458      0             -6049.2637     -1157.5084    
    306000   304.66488     -6067.9699      0             -6049.1063     -1187.5793    
    307000   304.11592     -6067.6806      0             -6048.8511     -1187.9738    
    308000   297.86052     -6067.1024      0             -6048.6602     -1158.5639    
    309000   291.19353     -6066.5273      0             -6048.4979     -1218.6149    
    310000   306.53116     -6067.3512      0             -6048.3722     -1161.2377    
    311000   306.03963     -6067.1218      0             -6048.1731     -1215.4573    
    312000   288.85544     -6065.8895      0             -6048.0048     -1190.3152    
    313000   300.55804     -6066.5502      0             -6047.9409     -1202.0653    
    314000   295.98271     -6066.0681      0             -6047.7421     -1221.6677    
    315000   297.07855     -6065.9085      0             -6047.5147     -1200.0668    
    316000   304.00343     -6066.1939      0             -6047.3713     -1199.3863    
    317000   306.60125     -6066.1249      0             -6047.1415     -1232.4257    
    318000   299.79688     -6065.5061      0             -6046.944      -1189.2689    
    319000   298.24757     -6065.196       0             -6046.7298     -1231.1763    
    320000   306.01682     -6065.5036      0             -6046.5564     -1203.2486    
    321000   298.5523      -6064.8798      0             -6046.3948     -1210.8776    
    322000   302.22164     -6064.9457      0             -6046.2335     -1241.8718    
    323000   303.15622     -6064.8566      0             -6046.0865     -1197.1526    
    324000   301.50721     -6064.5282      0             -6045.8602     -1240.9563    
    325000   293.88192     -6063.9304      0             -6045.7345     -1200.4144    
    326000   305.1363      -6064.3763      0             -6045.4836     -1248.4795    
    327000   300.98413     -6063.8642      0             -6045.2286     -1234.521     
    328000   303.93044     -6063.9192      0             -6045.1012     -1207.9188    
    329000   299.77707     -6063.4665      0             -6044.9056     -1261.2924    
    330000   310.11088     -6063.8858      0             -6044.6851     -1233.908     
    331000   302.07717     -6063.309       0             -6044.6057     -1264.2622    
    332000   310.89816     -6063.652       0             -6044.4025     -1236.7963    
    333000   288.32449     -6062.0428      0             -6044.191      -1251.9408    
    334000   296.42936     -6062.3469      0             -6043.9933     -1253.5011    
    335000   295.944       -6062.1105      0             -6043.7869     -1256.4834    
    336000   294.64504     -6061.8532      0             -6043.6101     -1237.7664    
    337000   302.77464     -6062.1838      0             -6043.4373     -1263.028     
    338000   299.35881     -6061.7696      0             -6043.2346     -1242.3664    
    339000   287.28062     -6060.7492      0             -6042.962      -1302.7914    
    340000   295.05786     -6061.1493      0             -6042.8806     -1236.3621    
    341000   296.34902     -6061.0101      0             -6042.6614     -1287.4449    
    342000   301.36774     -6061.0929      0             -6042.4335     -1258.6972    
    343000   292.39819     -6060.3574      0             -6042.2534     -1267.2926    
    344000   306.09569     -6060.9893      0             -6042.0372     -1292.0916    
    345000   307.1903      -6060.8506      0             -6041.8307     -1242.0774    
    346000   284.01569     -6059.2204      0             -6041.6354     -1296.4784    
    347000   311.05387     -6060.7573      0             -6041.4982     -1264.5174    
    348000   295.15136     -6059.5526      0             -6041.2781     -1293.6411    
    349000   308.98128     -6060.2741      0             -6041.1433     -1277.004     
    350000   304.16774     -6059.7103      0             -6040.8775     -1303.5919    
    351000   288.4835      -6058.5093      0             -6040.6476     -1300.4574    
    352000   303.09055     -6059.2591      0             -6040.4931     -1296.0331    
    353000   288.44289     -6058.1404      0             -6040.2813     -1282.8429    
    354000   316.24256     -6059.688       0             -6040.1077     -1315.2526    
    355000   293.63969     -6058.08        0             -6039.8991     -1281.3141    
    356000   291.8017      -6057.7459      0             -6039.6788     -1293.5659    
    357000   304.568       -6058.3421      0             -6039.4846     -1323.1114    
    358000   288.07647     -6057.1328      0             -6039.2963     -1297.0575    
    359000   303.85079     -6057.8826      0             -6039.0694     -1328.088     
    360000   288.42504     -6056.7664      0             -6038.9084     -1280.3407    
    361000   289.80276     -6056.5765      0             -6038.6332     -1338.8858    
    362000   303.31597     -6057.2749      0             -6038.4949     -1293.036     
    363000   300.56613     -6056.8254      0             -6038.2157     -1349.1845    
    364000   302.52296     -6056.8388      0             -6038.1079     -1310.3681    
    365000   303.42843     -6056.6535      0             -6037.8665     -1321.2107    
    366000   294.21089     -6055.8731      0             -6037.6569     -1343.5199    
    367000   303.21911     -6056.2247      0             -6037.4507     -1312.6411    
    368000   305.89728     -6056.1803      0             -6037.2405     -1345.0155    
    369000   304.5555      -6055.8988      0             -6037.0421     -1321.5062    
    370000   302.07288     -6055.5243      0             -6036.8213     -1356.4018    
    371000   298.37211     -6055.1036      0             -6036.6297     -1333.3212    
    372000   298.90153     -6054.9359      0             -6036.4292     -1356.163     
    373000   307.93966     -6055.252       0             -6036.1858     -1336.1481    
    374000   302.70708     -6054.7249      0             -6035.9826     -1357.8332    
    375000   306.33334     -6054.7492      0             -6035.7824     -1343.1655    
    376000   300.88148     -6054.1906      0             -6035.5614     -1368.5582    
    377000   309.1824      -6054.4682      0             -6035.325      -1355.2348    
    378000   292.29513     -6053.2151      0             -6035.1175     -1349.8819    
    379000   308.04269     -6053.9577      0             -6034.885      -1384.2679    
    380000   290.82788     -6052.7109      0             -6034.7041     -1327.3171    
    381000   308.03622     -6053.5961      0             -6034.5238     -1389.545     
    382000   305.89636     -6053.2058      0             -6034.266      -1345.9033    
    383000   294.79865     -6052.294       0             -6034.0413     -1384.1734    
    384000   297.95279     -6052.3496      0             -6033.9017     -1388.6511    
    385000   289.85591     -6051.5825      0             -6033.6359     -1363.0839    
    386000   292.46253     -6051.5261      0             -6033.4181     -1387.4924    
    387000   301.57794     -6051.8532      0             -6033.1808     -1370.2223    
    388000   296.25777     -6051.2773      0             -6032.9344     -1388.3611    
    389000   305.46668     -6051.7541      0             -6032.841      -1374.4338    
    390000   305.7852      -6051.5177      0             -6032.5848     -1394.1325    
    391000   298.84845     -6050.8277      0             -6032.3244     -1407.6246    
    392000   294.16783     -6050.3015      0             -6032.0879     -1394.3652    
    393000   299.85597     -6050.5091      0             -6031.9433     -1375.6314    
    394000   299.8307      -6050.2774      0             -6031.7132     -1424.4176    
    395000   303.81938     -6050.292       0             -6031.4808     -1375.5901    
    396000   303.50099     -6050.0161      0             -6031.2247     -1402.868     
    397000   297.50648     -6049.4631      0             -6031.0428     -1412.3342    
    398000   306.34029     -6049.8228      0             -6030.8556     -1381.9941    
    399000   297.10649     -6048.9838      0             -6030.5883     -1455.8593    
    400000   300.00814     -6048.9116      0             -6030.3364     -1360.822     
    401000   290.81474     -6048.1596      0             -6030.1537     -1439.8026    
    402000   297.50422     -6048.2775      0             -6029.8573     -1408.4544    
    403000   300.87621     -6048.3271      0             -6029.6982     -1420.486     
    404000   292.83227     -6047.5374      0             -6029.4065     -1416.7735    
    405000   301.34209     -6047.869       0             -6029.2113     -1403.8239    
    406000   305.51932     -6047.9297      0             -6029.0133     -1459.3595    
    407000   308.35703     -6047.7935      0             -6028.7014     -1421.4285    
    408000   293.54328     -6046.7737      0             -6028.5988     -1424.294     
    409000   305.49851     -6047.2331      0             -6028.318      -1430.7684    
    410000   293.73002     -6046.2336      0             -6028.0471     -1447.5823    
    411000   319.78406     -6047.6673      0             -6027.8677     -1427.2113    
    412000   288.70385     -6045.5309      0             -6027.6556     -1427.062     
    413000   300.49422     -6045.9599      0             -6027.3546     -1449.9259    
    414000   301.64648     -6045.8338      0             -6027.1572     -1465.7658    
    415000   312.05384     -6046.2455      0             -6026.9245     -1430.4935    
    416000   304.49756     -6045.5358      0             -6026.6827     -1454.1056    
    417000   311.6049      -6045.7721      0             -6026.4789     -1448.1476    
    418000   304.31171     -6045.0592      0             -6026.2176     -1454.2507    
    419000   292.36669     -6044.0618      0             -6025.9597     -1478.0149    
    420000   281.38888     -6043.1548      0             -6025.7325     -1423.0209    
    421000   299.65097     -6044.1072      0             -6025.5542     -1493.4371    
    422000   300.88739     -6043.8961      0             -6025.2665     -1436.1719    
    423000   301.83131     -6043.6668      0             -6024.9787     -1478.2983    
    424000   309.34539     -6043.904       0             -6024.7506     -1459.6719    
    425000   295.76679     -6042.9245      0             -6024.6119     -1460.18      
    426000   297.45875     -6042.7411      0             -6024.3238     -1479.0778    
    427000   295.46842     -6042.4204      0             -6024.1263     -1462.8459    
    428000   297.90925     -6042.3348      0             -6023.8896     -1478.456     
    429000   301.2593      -6042.2775      0             -6023.6248     -1481.2848    
    430000   299.07215     -6041.8955      0             -6023.3783     -1487.8245    
    431000   305.94839     -6042.0888      0             -6023.1458     -1477.333     
    432000   302.77715     -6041.6203      0             -6022.8736     -1496.8796    
    433000   286.31129     -6040.4319      0             -6022.7048     -1476.8379    
    434000   290.20892     -6040.3404      0             -6022.3719     -1508.9681    
    435000   306.63328     -6041.1852      0             -6022.1999     -1473.2517    
    436000   303.11126     -6040.7221      0             -6021.9548     -1506.1318    
    437000   314.69889     -6041.1998      0             -6021.715      -1504.7884    
    438000   304.24099     -6040.2875      0             -6021.4503     -1476.3108    
    439000   304.89618     -6040.0711      0             -6021.1933     -1516.9321    
    440000   295.7767      -6039.3019      0             -6020.9887     -1472.9631    
    441000   307.1894      -6039.6773      0             -6020.6575     -1532.7608    
    442000   303.10636     -6039.2423      0             -6020.4753     -1499.0283    
    443000   301.47407     -6038.8514      0             -6020.1855     -1499.5124    
    444000   297.7668      -6038.4395      0             -6020.0031     -1523.3977    
    445000   285.85577     -6037.3985      0             -6019.6996     -1504.0344    
    446000   303.21545     -6038.2629      0             -6019.4891     -1539.8268    
    447000   297.40781     -6037.6471      0             -6019.233      -1489.7199    
    448000   303.35471     -6037.8045      0             -6019.0221     -1527.0106    
    449000   299.34009     -6037.28        0             -6018.7461     -1538.3663    
    450000   303.98395     -6037.3202      0             -6018.4988     -1516.5892    
    451000   295.63904     -6036.5684      0             -6018.2637     -1528.0294    
    452000   290.37467     -6035.9324      0             -6017.9537     -1533.9934    
    453000   300.18658     -6036.4315      0             -6017.8453     -1538.4905    
    454000   302.93959     -6036.2811      0             -6017.5244     -1542.5942    
    455000   297.69427     -6035.717       0             -6017.2851     -1515.0271    
    456000   305.20839     -6035.908       0             -6017.0108     -1575.5504    
    457000   315.13936     -6036.2489      0             -6016.7369     -1541.5678    
    458000   305.19886     -6035.4284      0             -6016.5318     -1531.88      
    459000   274.79754     -6033.2505      0             -6016.2363     -1538.6213    
    460000   307.26578     -6035.0249      0             -6016.0004     -1565.9234    
    461000   294.76567     -6033.9855      0             -6015.7349     -1556.4886    
    462000   309.47515     -6034.7088      0             -6015.5474     -1542.7659    
    463000   292.46462     -6033.3337      0             -6015.2256     -1536.4566    
    464000   300.07012     -6033.6115      0             -6015.0325     -1576.2605    
    465000   284.33209     -6032.3474      0             -6014.7428     -1545.9305    
    466000   296.9414      -6032.8235      0             -6014.4382     -1555.8522    
    467000   307.78365     -6033.301       0             -6014.2444     -1571.6544    
    468000   319.03497     -6033.6896      0             -6013.9363     -1557.1033    
    469000   303.78578     -6032.4554      0             -6013.6463     -1605.7491    
    470000   284.59273     -6031.0713      0             -6013.4506     -1530.7545    
    471000   289.35909     -6031.0594      0             -6013.1435     -1589.5303    
    472000   312.99774     -6032.2712      0             -6012.8918     -1579.5445    
    473000   305.11025     -6031.5979      0             -6012.7069     -1589.2141    
    474000   299.84944     -6030.9575      0             -6012.3922     -1574.4903    
    475000   308.28896     -6031.1781      0             -6012.0902     -1561.9263    
    476000   294.6096      -6030.1824      0             -6011.9415     -1605.0616    
    477000   289.52259     -6029.5618      0             -6011.6358     -1595.4204    
    478000   302.59779     -6030.1176      0             -6011.3821     -1573.9816    
    479000   304.3492      -6029.9645      0             -6011.1205     -1596.5932    
    480000   301.42479     -6029.5332      0             -6010.8703     -1588.5132    
    481000   299.36453     -6029.1036      0             -6010.5683     -1601.9477    
    482000   285.8735      -6028.0375      0             -6010.3375     -1587.6619    
    483000   296.89031     -6028.4299      0             -6010.0477     -1586.7246    
    484000   283.83355     -6027.3756      0             -6009.8019     -1605.8143    
    485000   296.58508     -6027.8857      0             -6009.5224     -1613.3972    
    486000   300.11451     -6027.8239      0             -6009.2421     -1596.451     
    487000   303.81166     -6027.8055      0             -6008.9948     -1619.9368    
    488000   300.29231     -6027.3271      0             -6008.7343     -1604.6551    
    489000   300.99598     -6027.114       0             -6008.4776     -1633.4593    
    490000   312.93341     -6027.6214      0             -6008.246      -1597.3717    
    491000   293.39388     -6026.1426      0             -6007.9769     -1611.0882    
    492000   295.87085     -6025.9281      0             -6007.6091     -1638.6057    
    493000   312.88052     -6026.8381      0             -6007.466      -1592.0024    
    494000   293.02617     -6025.2871      0             -6007.1443     -1635.6462    
    495000   302.34321     -6025.5846      0             -6006.8649     -1608.8426    
    496000   304.93026     -6025.5344      0             -6006.6545     -1638.6111    
    497000   292.4568      -6024.4134      0             -6006.3058     -1614.9204    
    498000   306.41064     -6025.0558      0             -6006.0842     -1630.2385    
    499000   304.53468     -6024.6638      0             -6005.8083     -1660.6727    
    500000   303.06111     -6024.2526      0             -6005.4884     -1641.6137    
    501000   300.88794     -6023.9051      0             -6005.2754     -1636.0799    
    502000   292.40196     -6023.1792      0             -6005.0749     -1663.4721    
    503000   306.25001     -6023.6848      0             -6004.7231     -1637.9314    
    504000   303.46259     -6023.2221      0             -6004.433      -1638.2323    
    505000   299.32556     -6022.7897      0             -6004.2568     -1664.935     
    506000   292.64616     -6021.9942      0             -6003.8748     -1633.7032    
    507000   294.86916     -6021.8569      0             -6003.5999     -1654.3888    
    508000   300.64813     -6021.9114      0             -6003.2966     -1656.8914    
    509000   303.97859     -6021.9271      0             -6003.1061     -1651.3354    
    510000   304.38961     -6021.6359      0             -6002.7895     -1658.4081    
    511000   305.15355     -6021.3498      0             -6002.456      -1669.1608    
    512000   318.87032     -6022.0454      0             -6002.3023     -1683.8354    
    513000   306.60462     -6020.9344      0             -6001.9508     -1647.1495    
    514000   310.15773     -6020.9517      0             -6001.7481     -1672.4065    
    515000   288.37185     -6019.2944      0             -6001.4397     -1684.6211    
    516000   310.65811     -6020.4288      0             -6001.1942     -1662.296     
    517000   302.47931     -6019.5948      0             -6000.8666     -1684.7416    
    518000   305.48514     -6019.4893      0             -6000.575      -1688.9883    
    519000   296.49938     -6018.6721      0             -6000.3142     -1669.4039    
    520000   302.78299     -6018.7662      0             -6000.0192     -1682.2013    
    521000   303.6236      -6018.5624      0             -5999.7633     -1695.8541    
    522000   290.41393     -6017.547       0             -5999.5659     -1661.9285    
    523000   295.39197     -6017.4837      0             -5999.1943     -1707.8418    
    524000   309.60709     -6018.1052      0             -5998.9356     -1692.5961    
    525000   296.03415     -6016.9577      0             -5998.6286     -1681.6098    
    526000   279.81437     -6015.6243      0             -5998.2994     -1708.9241    
    527000   310.49882     -6017.2919      0             -5998.0672     -1679.501     
    528000   309.52454     -6016.9725      0             -5997.8081     -1707.4187    
    529000   302.21539     -6016.1686      0             -5997.4567     -1686.8463    
    530000   287.62946     -6015.0294      0             -5997.2206     -1707.6475    
    531000   311.37328     -6016.2923      0             -5997.0134     -1718.7248    
    532000   305.72665     -6015.5641      0             -5996.6349     -1701.6436    
    533000   311.58911     -6015.6754      0             -5996.3832     -1727.7276    
    534000   292.60459     -6014.2269      0             -5996.1101     -1704.2201    
    535000   281.97918     -6013.2953      0             -5995.8364     -1707.8349    
    536000   297.25621     -6013.9209      0             -5995.5161     -1720.2967    
    537000   306.62447     -6014.2438      0             -5995.259      -1715.1691    
    538000   294.93553     -6013.2579      0             -5994.9968     -1713.394     
    539000   306.87225     -6013.5822      0             -5994.5821     -1771.1741    
    540000   295.57548     -6012.6508      0             -5994.3501     -1685.5799    
    541000   292.85993     -6012.2224      0             -5994.0898     -1749.9237    
    542000   304.21828     -6012.6262      0             -5993.7903     -1723.4648    
    543000   299.71159     -6012.0264      0             -5993.4696     -1711.6624    
    544000   301.08665     -6011.8548      0             -5993.2129     -1749.6517    
    545000   297.34811     -6011.3265      0             -5992.916      -1715.8206    
    546000   303.28771     -6011.429       0             -5992.6508     -1758.4922    
    547000   290.14921     -6010.2744      0             -5992.3097     -1713.4675    
    548000   282.72419     -6009.6138      0             -5992.1088     -1758.7048    
    549000   299.01769     -6010.2224      0             -5991.7086     -1729.9987    
    550000   303.92021     -6010.2875      0             -5991.4701     -1750.5775    
    551000   309.4384      -6010.3812      0             -5991.2221     -1737.7205    
    552000   297.65047     -6009.2898      0             -5990.8606     -1769.5967    
    553000   305.72086     -6009.5672      0             -5990.6383     -1726.7287    
    554000   285.96435     -6007.934       0             -5990.2284     -1751.0617    
    555000   300.2732      -6008.5978      0             -5990.0062     -1750.8983    
    556000   294.83537     -6008.0119      0             -5989.757      -1760.5058    
    557000   315.52375     -6008.9486      0             -5989.4128     -1780.9688    
    558000   306.86918     -6008.077       0             -5989.077      -1738.9215    
    559000   293.65946     -6007.0417      0             -5988.8596     -1797.6145    
    560000   297.1113      -6006.8904      0             -5988.4946     -1742.3914    
    561000   297.29081     -6006.6665      0             -5988.2595     -1774.7958    
    562000   294.20832     -6006.1707      0             -5987.9546     -1769.4224    
    563000   300.69548     -6006.2591      0             -5987.6414     -1779.8162    
    564000   296.27481     -6005.7151      0             -5987.371      -1770.7664    
    565000   308.44012     -6006.1237      0             -5987.0264     -1793.6802    
    566000   297.00045     -6005.1478      0             -5986.7588     -1749.8102    
    567000   292.25168     -6004.5355      0             -5986.4406     -1809.2056    
    568000   296.88203     -6004.5451      0             -5986.1635     -1762.7695    
    569000   303.26784     -6004.6077      0             -5985.8307     -1810.9272    
    570000   307.51474     -6004.5155      0             -5985.4755     -1770.6928    
    571000   296.20162     -6003.6504      0             -5985.3109     -1798.835     
    572000   297.81667     -6003.4162      0             -5984.9767     -1776.4063    
    573000   307.81201     -6003.7243      0             -5984.6659     -1808.788     
    574000   305.02494     -6003.2577      0             -5984.3719     -1792.1065    
    575000   282.93466     -6001.5494      0             -5984.0313     -1807.8111    
    576000   293.63629     -6001.9968      0             -5983.8161     -1787.8132    
    577000   298.26003     -6001.9155      0             -5983.4485     -1816.9426    
    578000   296.27458     -6001.5332      0             -5983.1891     -1787.66      
    579000   319.08047     -6002.5639      0             -5982.8078     -1802.7289    
    580000   304.93091     -6001.4123      0             -5982.5323     -1825.964     
    581000   301.52033     -6000.9081      0             -5982.2393     -1801.9736    
    582000   293.01761     -6000.0977      0             -5981.9554     -1806.7627    
    583000   300.41752     -6000.2139      0             -5981.6134     -1803.3978    
    584000   304.7371      -6000.1717      0             -5981.3037     -1822.4245    
    585000   313.47289     -6000.4936      0             -5981.0848     -1839.3593    
    586000   306.24232     -5999.6894      0             -5980.7282     -1805.0627    
    587000   296.1785      -5998.7251      0             -5980.387      -1828.8224    
    588000   287.76821     -5997.9073      0             -5980.0899     -1820.0048    
    589000   302.15671     -5998.5134      0             -5979.8051     -1829.3466    
    590000   297.33169     -5997.8778      0             -5979.4684     -1822.6306    
    591000   286.33904     -5996.9016      0             -5979.1728     -1819.9317    
    592000   289.49813     -5996.7763      0             -5978.8518     -1820.3126    
    593000   289.83051     -5996.4634      0             -5978.5183     -1841.5908    
    594000   312.7366      -5997.6143      0             -5978.251      -1833.6169    
    595000   307.74279     -5997.0097      0             -5977.9556     -1846.5069    
    596000   306.24754     -5996.571       0             -5977.6095     -1830.0959    
    597000   301.80698     -5995.9798      0             -5977.2933     -1859.3154    
    598000   316.19343     -5996.6463      0             -5977.069      -1833.4965    
    599000   286.35587     -5994.3895      0             -5976.6596     -1865.486     
    600000   291.36841     -5994.4529      0             -5976.4126     -1842.8821    
    601000   297.66797     -5994.5366      0             -5976.1063     -1874.9024    
    602000   287.43519     -5993.559       0             -5975.7622     -1844.4724    
    603000   299.61255     -5994.0128      0             -5975.4621     -1860.3553    
    604000   291.9533      -5993.1982      0             -5975.1218     -1838.4101    
    605000   294.8507      -5993.062       0             -5974.8061     -1902.5686    
    606000   292.35266     -5992.5651      0             -5974.4639     -1846.2022    
    607000   302.91564     -5992.9449      0             -5974.1897     -1876.4228    
    608000   298.84555     -5992.4268      0             -5973.9236     -1851.2876    
    609000   297.49603     -5991.9937      0             -5973.574      -1902.2287    
    610000   298.73193     -5991.7448      0             -5973.2486     -1858.1942    
    611000   293.25709     -5991.131       0             -5972.9738     -1890.1726    
    612000   304.11915     -5991.42        0             -5972.5902     -1846.4144    
    613000   298.90447     -5990.8362      0             -5972.3294     -1906.5302    
    614000   295.08734     -5990.2088      0             -5971.9383     -1865.6975    
    615000   305.52105     -5990.6697      0             -5971.7532     -1896.4331    
    616000   300.89916     -5989.9565      0             -5971.3262     -1852.8772    
    617000   305.99043     -5989.9919      0             -5971.0463     -1916.6606    
    618000   291.41238     -5988.7016      0             -5970.6586     -1875.583     
    619000   302.93493     -5989.2216      0             -5970.4652     -1896.6591    
    620000   304.77308     -5988.9384      0             -5970.0682     -1857.8817    
    621000   309.1913      -5988.9038      0             -5969.76       -1911.651     
    622000   289.93672     -5987.3934      0             -5969.4417     -1886.592     
    623000   305.05251     -5988.0197      0             -5969.1322     -1907.4654    
    624000   302.12318     -5987.5392      0             -5968.833      -1875.5664    
    625000   304.2324      -5987.3445      0             -5968.5078     -1907.1653    
    626000   284.85088     -5985.7245      0             -5968.0878     -1903.7769    
    627000   284.20062     -5985.4732      0             -5967.8767     -1903.3556    
    628000   296.53043     -5985.8453      0             -5967.4855     -1901.2282    
    629000   289.78071     -5985.2143      0             -5967.2724     -1903.4223    
    630000   307.78246     -5985.8091      0             -5966.7526     -1918.6305    
    631000   308.70933     -5985.6592      0             -5966.5452     -1924.6229    
    632000   307.16388     -5985.1535      0             -5966.1353     -1898.7296    
    633000   295.51286     -5984.243       0             -5965.9462     -1946.1947    
    634000   299.60293     -5984.088       0             -5965.5379     -1916.8314    
    635000   299.19361     -5983.7312      0             -5965.2064     -1914.9834    
    636000   291.1917      -5982.9802      0             -5964.9509     -1913.5847    
    637000   301.78893     -5983.2329      0             -5964.5474     -1937.6119    
    638000   301.78164     -5982.8952      0             -5964.2102     -1928.9655    
    639000   305.36612     -5982.8177      0             -5963.9108     -1910.9875    
    640000   308.62484     -5982.6699      0             -5963.5612     -1965.1588    
    641000   295.31898     -5981.5393      0             -5963.2545     -1893.4492    
    642000   295.2201      -5981.1748      0             -5962.8961     -1967.9091    
    643000   303.046       -5981.3824      0             -5962.6191     -1913.7256    
    644000   309.34116     -5981.4876      0             -5962.3346     -1955.5752    
    645000   313.55729     -5981.3284      0             -5961.9143     -1910.0182    
    646000   284.34466     -5979.2886      0             -5961.6832     -1966.5024    
    647000   307.72962     -5980.3151      0             -5961.2619     -1923.4019    
    648000   299.81395     -5979.5379      0             -5960.9748     -1952.4721    
    649000   299.43047     -5979.0815      0             -5960.5421     -1959.7222    
    650000   301.84405     -5978.9561      0             -5960.2672     -1927.6751    
    651000   292.25476     -5978.0318      0             -5959.9367     -1957.8371    
    652000   293.68756     -5977.7981      0             -5959.6143     -1952.9913    
    653000   295.06471     -5977.5762      0             -5959.3071     -1979.9663    
    654000   296.95049     -5977.3685      0             -5958.9826     -1915.3353    
    655000   298.40854     -5977.0923      0             -5958.6162     -1978.8546    
    656000   279.90638     -5975.5662      0             -5958.2356     -1972.7221    
    657000   314.8181      -5977.4702      0             -5957.978      -1952.087     
    658000   311.68069     -5976.8954      0             -5957.5975     -1959.6267    
    659000   301.50239     -5975.9144      0             -5957.2467     -1976.5489    
    660000   298.1851      -5975.3939      0             -5956.9315     -1976.0031    
    661000   294.40848     -5974.8597      0             -5956.6312     -1967.9398    
    662000   303.66596     -5975.0986      0             -5956.297      -1979.7667    
    663000   287.87551     -5973.7887      0             -5955.9647     -1980.0558    
    664000   300.15869     -5974.1804      0             -5955.5959     -1968.0589    
    665000   300.93365     -5973.8179      0             -5955.1854     -1987.3445    
    666000   306.77174     -5973.8867      0             -5954.8927     -1979.7012    
    667000   289.89615     -5972.496       0             -5954.5469     -1966.8492    
    668000   300.16377     -5972.8489      0             -5954.264      -1985.1034    
    669000   297.47635     -5972.3211      0             -5953.9027     -2000.9048    
    670000   308.61959     -5972.7255      0             -5953.6171     -1979.0028    
    671000   302.03798     -5971.9088      0             -5953.2079     -1986.8257    
    672000   305.54891     -5971.8105      0             -5952.8922     -1991.9493    
    673000   297.29377     -5970.926       0             -5952.5188     -1993.9442    
    674000   299.21051     -5970.7503      0             -5952.2245     -1995.3043    
    675000   292.01834     -5969.912       0             -5951.8315     -1997.3251    
    676000   311.67527     -5970.8195      0             -5951.522      -1986.2047    
    677000   308.11364     -5970.2957      0             -5951.2187     -1995.1591    
    678000   297.57507     -5969.2643      0             -5950.8398     -2004.1429    
    679000   289.44179     -5968.3734      0             -5950.4524     -2008.5595    
    680000   311.35136     -5969.4747      0             -5950.1972     -1985.3443    
    681000   284.60012     -5967.3683      0             -5949.7472     -2002.6734    
    682000   310.49735     -5968.6308      0             -5949.4062     -2050.0097    
    683000   288.45679     -5966.9848      0             -5949.1248     -1986.5418    
    684000   310.91009     -5968.0892      0             -5948.839      -2015.0514    
    685000   293.85752     -5966.619       0             -5948.4246     -2026.8282    
    686000   307.78768     -5967.2368      0             -5948.1799     -2027.6451    
    687000   302.7192      -5966.4532      0             -5947.7101     -2016.3151    
    688000   292.03247     -5965.4989      0             -5947.4175     -1999.8161    
    689000   299.91841     -5965.6509      0             -5947.0813     -2052.132     
    690000   307.08909     -5965.7094      0             -5946.6958     -2007.8241    
    691000   309.24362     -5965.4536      0             -5946.3065     -2041.6236    
    692000   302.57151     -5964.7369      0             -5946.003      -2013.0254    
    693000   300.01479     -5964.1946      0             -5945.619      -2054.7863    
    694000   305.25319     -5964.1655      0             -5945.2656     -2015.9171    
    695000   294.37045     -5963.2699      0             -5945.0438     -2062.5964    
    696000   298.18796     -5963.1012      0             -5944.6387     -2034.3412    
    697000   316.12177     -5963.7816      0             -5944.2088     -2024.2038    
    698000   298.98736     -5962.433       0             -5943.9211     -2050.4088    
    699000   297.83722     -5962.0388      0             -5943.598      -2023.2185    
    700000   297.10126     -5961.6361      0             -5943.2408     -2066.0144    
    701000   289.28652     -5960.7827      0             -5942.8714     -2030.8474    
    702000   291.70973     -5960.6082      0             -5942.5469     -2042.5447    
    703000   293.60343     -5960.2893      0             -5942.1106     -2037.3233    
    704000   305.55147     -5960.874       0             -5941.9556     -2067.9203    
    705000   299.57602     -5960.1021      0             -5941.5536     -2052.1136    
    706000   303.40819     -5959.9763      0             -5941.1906     -2040.966     
    707000   290.6171      -5958.6876      0             -5940.6939     -2060.4978    
    708000   298.22045     -5958.8868      0             -5940.4222     -2039.5739    
    709000   284.62867     -5957.6028      0             -5939.9798     -2079.2379    
    710000   291.65783     -5957.8242      0             -5939.7661     -2039.5259    
    711000   305.1122      -5958.244       0             -5939.3528     -2061.2856    
    712000   307.16562     -5957.9788      0             -5938.9605     -2075.0366    
    713000   298.55169     -5957.1138      0             -5938.6288     -2054.4268    
    714000   292.07595     -5956.367       0             -5938.283      -2089.98      
    715000   295.72825     -5956.2226      0             -5937.9124     -2026.8438    
    716000   287.6907      -5955.423       0             -5937.6104     -2100.9528    
    717000   286.7627      -5954.9663      0             -5937.2112     -2045.7706    
    718000   297.34623     -5955.2928      0             -5936.8825     -2091.4324    
    719000   291.11406     -5954.4666      0             -5936.4421     -2062.5334    
    720000   304.94674     -5955.0522      0             -5936.1712     -2086.3335    
    721000   308.87768     -5954.8723      0             -5935.7479     -2090.8273    
    722000   296.64713     -5953.843       0             -5935.4759     -2065.1226    
    723000   306.72837     -5953.9711      0             -5934.9798     -2095.3018    
    724000   308.9337      -5953.8628      0             -5934.735      -2060.8633    
    725000   297.17088     -5952.7275      0             -5934.328      -2105.8104    
    726000   292.51375     -5952.1518      0             -5934.0406     -2096.8366    
    727000   312.46956     -5952.9903      0             -5933.6435     -2089.5985    
    728000   297.90913     -5951.6989      0             -5933.2537     -2074.5345    
    729000   293.09704     -5951.0501      0             -5932.9028     -2119.5376    
    730000   293.61822     -5950.7513      0             -5932.5718     -2102.0475    
    731000   296.89037     -5950.5911      0             -5932.209      -2096.2364    
    732000   303.41996     -5950.6648      0             -5931.8784     -2091.1939    
    733000   297.40172     -5949.9456      0             -5931.5318     -2108.707     
    734000   296.15583     -5949.4241      0             -5931.0874     -2112.7456    
    735000   303.83796     -5949.4904      0             -5930.6781     -2093.5186    
    736000   296.06116     -5948.7415      0             -5930.4107     -2115.2033    
    737000   307.52413     -5949.105       0             -5930.0644     -2108.9575    
    738000   300.89438     -5948.2944      0             -5929.6644     -2116.0207    
    739000   292.09778     -5947.3789      0             -5929.2935     -2123.7852    
    740000   294.02846     -5947.1451      0             -5928.9401     -2096.8383    
    741000   295.41728     -5946.8983      0             -5928.6074     -2123.1634    
    742000   296.96703     -5946.6507      0             -5928.2638     -2100.0529    
    743000   305.98889     -5946.7987      0             -5927.8532     -2131.2921    
    744000   298.30165     -5945.9159      0             -5927.4464     -2119.7531    
    745000   307.68777     -5946.1645      0             -5927.1138     -2108.6431    
    746000   292.5034      -5944.8777      0             -5926.7672     -2151.5191    
    747000   309.30734     -5945.5872      0             -5926.4362     -2120.0353    
    748000   312.0622      -5945.3931      0             -5926.0715     -2140.2213    
    749000   293.27937     -5943.8208      0             -5925.6622     -2115.1372    
    750000   308.66022     -5944.3508      0             -5925.2399     -2147.4752    
    751000   292.36496     -5942.9706      0             -5924.8686     -2139.9309    
    752000   320.17903     -5944.4334      0             -5924.6093     -2127.1748    
    753000   303.60876     -5943.0179      0             -5924.2198     -2144.4624    
    754000   291.598       -5941.8109      0             -5923.7564     -2142.7019    
    755000   300.37982     -5942.0198      0             -5923.4216     -2139.7756    
    756000   295.65948     -5941.3605      0             -5923.0545     -2145.6043    
    757000   288.32045     -5940.5817      0             -5922.7302     -2144.9299    
    758000   299.34352     -5940.9015      0             -5922.3675     -2149.4449    
    759000   298.52759     -5940.4804      0             -5921.9969     -2144.2608    
    760000   301.88236     -5940.215       0             -5921.5238     -2146.0029    
    761000   299.39384     -5939.7583      0             -5921.2211     -2153.6155    
    762000   303.32291     -5939.6561      0             -5920.8757     -2150.4363    
    763000   317.08816     -5940.1774      0             -5920.5447     -2132.6724    
    764000   302.23729     -5938.8529      0             -5920.1397     -2189.8295    
    765000   304.03399     -5938.5881      0             -5919.7637     -2148.5595    
    766000   304.94246     -5938.2054      0             -5919.3247     -2175.5059    
    767000   304.2814      -5937.839       0             -5918.9993     -2147.0134    
    768000   303.85355     -5937.4579      0             -5918.6446     -2149.218     
    769000   298.17513     -5936.7087      0             -5918.247      -2182.9742    
    770000   308.02644     -5936.9675      0             -5917.8958     -2173.4909    
    771000   300.25875     -5936.1344      0             -5917.5437     -2186.7289    
    772000   299.19559     -5935.6287      0             -5917.1038     -2145.6331    
    773000   301.89465     -5935.4413      0             -5916.7493     -2186.6129    
    774000   282.6455      -5933.8881      0             -5916.388      -2172.3224    
    775000   286.98872     -5933.786       0             -5916.0169     -2182.7045    
    776000   311.39963     -5934.9181      0             -5915.6376     -2188.2684    
    777000   302.99707     -5934.0304      0             -5915.2701     -2163.6354    
    778000   302.76536     -5933.611       0             -5914.8651     -2201.1984    
    779000   302.5286      -5933.3089      0             -5914.5776     -2186.4931    
    780000   294.72567     -5932.4169      0             -5914.1688     -2174.478     
    781000   301.21333     -5932.3325      0             -5913.6827     -2192.0324    
    782000   299.29501     -5931.9192      0             -5913.3881     -2210.422     
    783000   295.04736     -5931.3193      0             -5913.0512     -2178.2205    
    784000   309.30569     -5931.8335      0             -5912.6826     -2195.9666    
    785000   294.12596     -5930.4953      0             -5912.2843     -2193.3247    
    786000   293.89463     -5930.012       0             -5911.8153     -2173.2832    
    787000   298.8846      -5929.964       0             -5911.4584     -2226.3693    
    788000   289.1496      -5929.0424      0             -5911.1395     -2199.6534    
    789000   297.72697     -5929.2378      0             -5910.8038     -2207.7368    
    790000   304.86613     -5929.237       0             -5910.3611     -2190.7194    
    791000   294.46536     -5928.2191      0             -5909.9871     -2199.0643    
    792000   296.74938     -5927.9484      0             -5909.575      -2204.6578    
    793000   289.63306     -5927.161       0             -5909.2282     -2204.5788    
    794000   308.20562     -5927.9455      0             -5908.8627     -2209.9948    
    795000   308.52992     -5927.6498      0             -5908.547      -2203.6003    
    796000   311.7796      -5927.4181      0             -5908.1141     -2221.3143    
    797000   304.17328     -5926.5815      0             -5907.7485     -2220.0539    
    798000   295.66045     -5925.6277      0             -5907.3217     -2213.5803    
    799000   314.47883     -5926.3868      0             -5906.9156     -2219.2831    
    800000   294.70823     -5924.7343      0             -5906.4873     -2212.9433    
    801000   301.89883     -5924.833       0             -5906.1408     -2229.7403    
    802000   300.99273     -5924.4362      0             -5905.8001     -2243.1612    
    803000   284.64537     -5923.0363      0             -5905.4123     -2223.328     
    804000   311.53805     -5924.3297      0             -5905.0406     -2217.927     
    805000   288.7221      -5922.5283      0             -5904.6519     -2219.1174    
    806000   307.39505     -5923.246       0             -5904.2134     -2239.709     
    807000   295.04456     -5922.1047      0             -5903.8368     -2253.2056    
    808000   300.96389     -5922.151       0             -5903.5167     -2212.7382    
    809000   301.33838     -5921.7652      0             -5903.1077     -2243.9371    
    810000   306.77589     -5921.7144      0             -5902.7202     -2222.1887    
    811000   295.8986      -5920.6177      0             -5902.297      -2254.1664    
    812000   308.51995     -5921.0546      0             -5901.9524     -2250.716     
    813000   284.42309     -5919.1303      0             -5901.5201     -2220.3842    
    814000   295.84312     -5919.4541      0             -5901.1368     -2266.2086    
    815000   309.74552     -5919.9902      0             -5900.8121     -2215.5143    
    816000   297.48735     -5918.8758      0             -5900.4567     -2284.0711    
    817000   326.30817     -5920.2477      0             -5900.0442     -2231.1207    
    818000   292.12285     -5917.8141      0             -5899.7271     -2226.4548    
    819000   307.89729     -5918.23        0             -5899.1664     -2260.7338    
    820000   300.27256     -5917.5046      0             -5898.913      -2229.2682    
    821000   290.58367     -5916.49        0             -5898.4983     -2292.8436    
    822000   300.27945     -5916.6921      0             -5898.1001     -2220.4321    
    823000   291.39814     -5915.7524      0             -5897.7103     -2267.9361    
    824000   303.16099     -5916.0842      0             -5897.3138     -2279.0834    
    825000   302.97077     -5915.7627      0             -5897.0041     -2232.379     
    826000   295.78253     -5914.8553      0             -5896.5417     -2292.4818    
    827000   295.90163     -5914.5302      0             -5896.2093     -2223.2113    
    828000   314.57962     -5915.2103      0             -5895.7329     -2268.2025    
    829000   296.63023     -5913.6995      0             -5895.3334     -2286.0955    
    830000   286.60717     -5912.7422      0             -5894.9967     -2255.5014    
    831000   314.68955     -5914.0877      0             -5894.6035     -2293.6923    
    832000   290.45779     -5912.1414      0             -5894.1575     -2234.7935    
    833000   301.64184     -5912.4348      0             -5893.7585     -2297.0441    
    834000   307.4113      -5912.4415      0             -5893.4079     -2282.1459    
    835000   304.86469     -5911.9142      0             -5893.0383     -2235.0837    
    836000   313.9587      -5912.0815      0             -5892.6426     -2300.1959    
    837000   311.35469     -5911.5044      0             -5892.2267     -2266.0009    
    838000   290.80077     -5909.8643      0             -5891.8592     -2289.1498    
    839000   306.62941     -5910.4162      0             -5891.4311     -2258.5839    
    840000   302.11264     -5909.7469      0             -5891.0414     -2257.6716    
    841000   297.57885     -5909.0371      0             -5890.6124     -2316.0864    
    842000   304.31601     -5909.0771      0             -5890.2352     -2256.8539    
    843000   305.42388     -5908.7982      0             -5889.8877     -2298.0226    
    844000   292.69622     -5907.619       0             -5889.4966     -2319.2047    
    845000   307.69758     -5908.1683      0             -5889.117      -2279.848     
    846000   296.55389     -5907.0274      0             -5888.6661     -2296.0404    
    847000   304.92741     -5907.1155      0             -5888.2357     -2296.8822    
    848000   307.05625     -5906.9553      0             -5887.9437     -2292.6025    
    849000   316.36032     -5907.0575      0             -5887.4699     -2320.7783    
    850000   305.0795      -5905.9836      0             -5887.0944     -2285.0882    
    851000   295.12342     -5905.0137      0             -5886.741      -2317.6664    
    852000   311.52729     -5905.5819      0             -5886.2935     -2299.637     
    853000   306.60762     -5904.9457      0             -5885.9619     -2265.8307    
    854000   306.11128     -5904.4569      0             -5885.5039     -2345.4085    
    855000   303.37114     -5903.8749      0             -5885.0915     -2281.2436    
    856000   297.5543      -5903.192       0             -5884.7688     -2297.1416    
    857000   306.54693     -5903.2554      0             -5884.2754     -2325.1884    
[...]
   2687000   308.05057     -5896.9657      0             -5877.8926     -541.03852    
   2688000   284.50729     -5895.2961      0             -5877.6807     -577.64836    
   2689000   307.35153     -5896.7137      0             -5877.6839     -548.5976     
   2690000   300.599       -5896.3145      0             -5877.7027     -552.27051    
   2691000   288.80448     -5895.4572      0             -5877.5757     -480.96411    
   2692000   300.59943     -5896.0037      0             -5877.3919     -564.55751    
   2693000   288.99991     -5895.4297      0             -5877.5361     -535.18634    
   2694000   303.94209     -5896.2969      0             -5877.4781     -541.85641    
   2695000   307.40055     -5896.553       0             -5877.5201     -539.86458    
   2696000   295.0563      -5895.7444      0             -5877.4758     -523.09991    
   2697000   321.62631     -5897.6623      0             -5877.7486     -540.44586    
   2698000   290.26847     -5895.6016      0             -5877.6295     -546.01228    
   2699000   293.74767     -5895.6829      0             -5877.4954     -546.42516    
   2700000   301.30547     -5896.1095      0             -5877.4539     -532.87741    
   2701000   296.81098     -5895.6546      0             -5877.2773     -565.07488    
   2702000   287.79379     -5895.202       0             -5877.3831     -500.11989    
   2703000   299.03771     -5895.7         0             -5877.1849     -557.47372    
   2704000   309.88321     -5896.5334      0             -5877.3468     -573.26948    
   2705000   316.51683     -5896.778       0             -5877.1806     -555.92173    
   2706000   300.18386     -5895.856       0             -5877.2699     -515.50911    
   2707000   295.46849     -5895.5343      0             -5877.2402     -590.45603    
   2708000   294.70096     -5895.5416      0             -5877.295      -540.58415    
   2709000   312.98757     -5896.692       0             -5877.3132     -554.309      
   2710000   291.88398     -5895.0754      0             -5877.0033     -535.57803    
   2711000   295.03593     -5895.3716      0             -5877.1043     -540.07353    
   2712000   291.4556      -5895.2324      0             -5877.1868     -486.2831     
   2713000   297.80172     -5895.5734      0             -5877.1348     -598.77273    
   2714000   290.20808     -5895.1117      0             -5877.1433     -480.17046    
   2715000   283.03275     -5894.6417      0             -5877.1175     -582.14131    
   2716000   299.1448      -5895.5543      0             -5877.0326     -514.17367    
   2717000   295.81921     -5895.3231      0             -5877.0073     -543.70696    
   2718000   320.77552     -5896.9017      0             -5877.0407     -536.61249    
   2719000   307.33691     -5895.881       0             -5876.852      -530.72514    
   2720000   290.90023     -5894.9329      0             -5876.9217     -559.67508    
   2721000   289.0581      -5894.6875      0             -5876.7903     -552.05076    
   2722000   307.53325     -5896.0003      0             -5876.9592     -523.36896    
   2723000   304.72095     -5895.727       0             -5876.86       -571.35595    
   2724000   309.41003     -5895.8915      0             -5876.7342     -533.67605    
   2725000   301.86785     -5895.4181      0             -5876.7278     -544.29171    
   2726000   305.1525      -5895.6703      0             -5876.7766     -580.71243    
   2727000   299.94785     -5895.3689      0             -5876.7975     -519.69449    
   2728000   296.86916     -5895.0926      0             -5876.7117     -562.7994     
   2729000   306.36114     -5895.7929      0             -5876.8243     -538.55675    
   2730000   308.40324     -5895.8165      0             -5876.7215     -515.5809     
   2731000   300.74082     -5895.2175      0             -5876.597      -561.30217    
   2732000   304.38374     -5895.5938      0             -5876.7477     -561.62885    
   2733000   319.28063     -5896.465       0             -5876.6966     -559.07488    
   2734000   306.70287     -5895.6118      0             -5876.6222     -532.75796    
   2735000   306.42307     -5895.3924      0             -5876.42       -555.82728    
   2736000   312.10876     -5895.8526      0             -5876.5282     -546.17995    
   2737000   290.43149     -5894.4477      0             -5876.4655     -556.13081    
   2738000   308.62532     -5895.6295      0             -5876.5208     -577.15089    
   2739000   295.79438     -5894.794       0             -5876.4797     -554.72322    
   2740000   293.18814     -5894.4389      0             -5876.2859     -548.54539    
   2741000   311.05229     -5895.6638      0             -5876.4048     -559.93612    
   2742000   305.35775     -5895.3884      0             -5876.4819     -554.84235    
   2743000   299.54967     -5894.7957      0             -5876.2489     -552.73657    
   2744000   304.6422      -5895.2487      0             -5876.3866     -573.11511    
   2745000   305.66218     -5895.2416      0             -5876.3164     -557.2019     
   2746000   307.50968     -5895.4135      0             -5876.3739     -557.06016    
   2747000   300.12798     -5894.8884      0             -5876.3058     -548.62618    
   2748000   310.62549     -5895.3989      0             -5876.1663     -590.06856    
   2749000   296.599       -5894.534       0             -5876.1699     -565.05013    
   2750000   286.96856     -5893.9455      0             -5876.1777     -555.83248    
   2751000   302.39983     -5894.8556      0             -5876.1324     -603.62536    
   2752000   299.1138      -5894.6373      0             -5876.1175     -564.10982    
   2753000   320.76002     -5895.9437      0             -5876.0837     -603.7799     
   2754000   294.88465     -5894.4093      0             -5876.1513     -603.08706    
   2755000   305.34734     -5895.0544      0             -5876.1486     -613.51036    
   2756000   301.89076     -5894.6492      0             -5875.9574     -551.33075    
   2757000   292.15333     -5894.1321      0             -5876.0432     -626.0323     
   2758000   318.35281     -5895.6321      0             -5875.9211     -528.41291    
   2759000   303.25454     -5894.7784      0             -5876.0022     -554.67474    
   2760000   306.46507     -5894.948       0             -5875.9731     -597.34204    
   2761000   303.99114     -5894.7472      0             -5875.9254     -556.71038    
   2762000   297.50017     -5894.4113      0             -5875.9914     -617.25279    
   2763000   307.90877     -5894.8924      0             -5875.8281     -533.73177    
   2764000   297.45837     -5894.1816      0             -5875.7643     -555.56808    
   2765000   305.69386     -5894.6412      0             -5875.7139     -571.77521    
   2766000   309.34399     -5894.9284      0             -5875.7751     -595.7056     
   2767000   297.78688     -5894.0492      0             -5875.6115     -556.79162    
   2768000   306.51416     -5894.4505      0             -5875.4724     -604.13001    
   2769000   303.36688     -5894.3814      0             -5875.5982     -540.78616    
   2770000   304.24188     -5894.4959      0             -5875.6586     -615.05723    
   2771000   300.01983     -5894.0553      0             -5875.4794     -610.70638    
   2772000   297.02536     -5893.9034      0             -5875.5129     -569.94007    
   2773000   301.13486     -5893.9858      0             -5875.3409     -548.46482    
   2774000   311.86813     -5897.9786      0             -5878.6691     -532.93666    
   2775000   308.72919     -5898.4559      0             -5879.3408     -546.19964    
   2776000   307.85126     -5898.4092      0             -5879.3484     -555.45731    
   2777000   308.17715     -5900.7006      0             -5881.6196     -523.39101    
   2778000   300.17287     -5900.2424      0             -5881.657      -493.78678    
   2779000   313.21899     -5901.368       0             -5881.9748     -447.50458    
   2780000   314.64556     -5901.3217      0             -5881.8403     -411.0693     
   2781000   297.18184     -5900.5292      0             -5882.129      -496.76361    
   2782000   295.28547     -5900.3254      0             -5882.0426     -460.66732    
   2783000   290.36932     -5899.7524      0             -5881.774      -452.27335    
   2784000   296.29506     -5900.5143      0             -5882.169      -406.3124     
   2785000   308.93054     -5901.1341      0             -5882.0065     -421.54337    
   2786000   299.77515     -5900.4376      0             -5881.8768     -473.76821    
   2787000   308.08834     -5901.0081      0             -5881.9326     -451.61058    
   2788000   291.14622     -5899.8454      0             -5881.8189     -550.1957     
   2789000   295.33111     -5900.2773      0             -5881.9917     -456.72578    
   2790000   298.08207     -5899.9642      0             -5881.5082     -471.56134    
   2791000   300.82298     -5900.5108      0             -5881.8852     -497.6458     
   2792000   290.34068     -5899.8017      0             -5881.8251     -494.52031    
   2793000   290.00134     -5899.6111      0             -5881.6555     -474.74659    
   2794000   304.88354     -5900.548       0             -5881.6709     -484.52787    
   2795000   300.68515     -5900.5029      0             -5881.8858     -456.22638    
   2796000   302.15746     -5900.4915      0             -5881.7833     -499.64164    
   2797000   297.42156     -5900.0683      0             -5881.6532     -483.18011    
   2798000   303.54619     -5900.4641      0             -5881.6698     -510.13081    
   2799000   312.67756     -5901.1151      0             -5881.7555     -441.24116    
   2800000   296.76953     -5899.9282      0             -5881.5535     -523.79966    
   2801000   290.4146      -5899.3665      0             -5881.3853     -420.78487    
   2802000   279.41688     -5898.8142      0             -5881.5139     -469.06892    
   2803000   311.80658     -5900.8408      0             -5881.5351     -488.45001    
   2804000   286.62813     -5899.2515      0             -5881.5047     -464.43965    
   2805000   302.39313     -5900.3268      0             -5881.6039     -476.16565    
   2806000   311.87793     -5900.9784      0             -5881.6683     -466.90925    
   2807000   302.88941     -5900.4076      0             -5881.654      -488.246      
   2808000   309.53806     -5900.8606      0             -5881.6954     -518.41403    
   2809000   310.33041     -5900.6938      0             -5881.4795     -455.62463    
   2810000   308.12296     -5900.6865      0             -5881.6089     -507.56192    
   2811000   281.78888     -5898.9002      0             -5881.4531     -487.49992    
   2812000   303.8855      -5900.2318      0             -5881.4166     -486.83896    
   2813000   299.08775     -5900.1389      0             -5881.6207     -488.9698     
   2814000   301.97571     -5900.1593      0             -5881.4623     -509.67466    
   2815000   308.3568      -5900.5893      0             -5881.4972     -477.34122    
   2816000   303.18893     -5900.2078      0             -5881.4356     -491.19413    
   2817000   287.67364     -5899.2314      0             -5881.4199     -461.41939    
   2818000   290.20971     -5899.3946      0             -5881.4261     -507.09295    
   2819000   302.88534     -5900.1726      0             -5881.4193     -474.56205    
   2820000   291.5423      -5899.6672      0             -5881.6161     -499.55247    
   2821000   297.41276     -5899.7782      0             -5881.3637     -503.91846    
   2822000   300.83421     -5900.0712      0             -5881.4449     -535.81158    
   2823000   299.40244     -5899.8443      0             -5881.3066     -473.82735    
   2824000   286.9007      -5899.1611      0             -5881.3975     -515.01319    
   2825000   299.60811     -5899.9006      0             -5881.3502     -466.62095    
   2826000   289.20084     -5899.2535      0             -5881.3475     -498.68585    
   2827000   301.67616     -5900.0408      0             -5881.3624     -532.28437    
   2828000   313.61388     -5900.735       0             -5881.3174     -487.85378    
   2829000   307.35178     -5900.3286      0             -5881.2987     -507.7853     
   2830000   298.02471     -5899.7338      0             -5881.2814     -515.54767    
   2831000   314.30645     -5900.6345      0             -5881.174      -474.08419    
   2832000   290.07037     -5899.189       0             -5881.2291     -494.10004    
   2833000   309.03701     -5900.3121      0             -5881.1779     -518.31858    
   2834000   307.34536     -5900.2282      0             -5881.1987     -519.60213    
   2835000   297.26271     -5899.4891      0             -5881.0839     -510.85657    
   2836000   297.4054      -5899.5332      0             -5881.1192     -470.90778    
   2837000   313.03605     -5900.2925      0             -5880.9107     -527.45941    
   2838000   309.75459     -5900.3534      0             -5881.1748     -473.24212    
   2839000   318.52854     -5900.8872      0             -5881.1653     -504.0072     
   2840000   288.4815      -5898.9979      0             -5881.1364     -505.00247    
   2841000   293.21063     -5899.2392      0             -5881.0849     -484.00643    
   2842000   295.78263     -5899.4669      0             -5881.1534     -511.7627     
   2843000   297.55457     -5899.513       0             -5881.0897     -518.67629    
   2844000   305.68642     -5900.0003      0             -5881.0735     -515.26338    
   2845000   298.47079     -5899.4009      0             -5880.9209     -491.1033     
   2846000   300.8904      -5899.6671      0             -5881.0373     -476.91364    
   2847000   297.25229     -5899.3501      0             -5880.9456     -486.29121    
   2848000   306.65342     -5900.0041      0             -5881.0175     -502.41852    
   2849000   304.21207     -5899.6567      0             -5880.8212     -516.95934    
   2850000   286.22015     -5898.6418      0             -5880.9203     -517.16004    
   2851000   294.15758     -5899.2368      0             -5881.0239     -502.7177     
   2852000   311.63654     -5900.1587      0             -5880.8636     -477.22379    
   2853000   299.27175     -5899.3903      0             -5880.8607     -517.95254    
   2854000   299.53493     -5899.4677      0             -5880.9218     -481.65149    
   2855000   315.44544     -5900.3673      0             -5880.8363     -542.31029    
   2856000   303.13473     -5899.7151      0             -5880.9463     -500.88389    
   2857000   293.58007     -5899.0488      0             -5880.8716     -486.20695    
   2858000   307.88791     -5899.8443      0             -5880.7812     -519.87879    
   2859000   310.66388     -5899.8686      0             -5880.6336     -480.64453    
   2860000   300.17735     -5899.23        0             -5880.6443     -566.85415    
   2861000   289.47519     -5898.5542      0             -5880.6312     -519.68266    
   2862000   314.42249     -5900.2579      0             -5880.7902     -502.88929    
   2863000   302.67602     -5899.4386      0             -5880.6982     -491.1252     
   2864000   309.69214     -5899.8462      0             -5880.6714     -483.04996    
   2865000   292.87316     -5898.712       0             -5880.5786     -516.67895    
   2866000   286.54876     -5898.4345      0             -5880.6927     -466.73578    
   2867000   300.15656     -5899.0975      0             -5880.5131     -497.37729    
   2868000   291.74254     -5898.6562      0             -5880.5927     -481.34684    
   2869000   303.39661     -5899.1996      0             -5880.4146     -527.29869    
   2870000   304.1447      -5899.4253      0             -5880.594      -492.30005    
   2871000   297.68206     -5898.8421      0             -5880.4109     -511.98946    
   2872000   305.80187     -5899.5165      0             -5880.5825     -514.52708    
   2873000   286.13094     -5898.177       0             -5880.461      -465.72606    
   2874000   303.78707     -5899.048       0             -5880.2388     -530.55469    
   2875000   299.53139     -5898.9598      0             -5880.4141     -515.33059    
   2876000   299.17198     -5898.855       0             -5880.3316     -521.00255    
   2877000   303.05087     -5899.0195      0             -5880.2559     -539.03226    
   2878000   288.74016     -5898.2412      0             -5880.3637     -475.23256    
   2879000   305.44369     -5899.2737      0             -5880.362      -503.48019    
   2880000   295.79615     -5898.5849      0             -5880.2705     -473.09482    
   2881000   307.13622     -5899.3644      0             -5880.3479     -502.23396    
   2882000   312.47575     -5899.6111      0             -5880.264      -494.80657    
   2883000   292.06891     -5898.3818      0             -5880.2982     -546.54743    
   2884000   287.42838     -5898.0325      0             -5880.2362     -490.8684     
   2885000   300.12441     -5899.0232      0             -5880.4409     -544.94873    
   2886000   311.28733     -5899.5467      0             -5880.2731     -508.14282    
   2887000   290.30495     -5898.2435      0             -5880.2691     -548.46524    
   2888000   277.73879     -5897.3681      0             -5880.1717     -510.35828    
   2889000   280.89322     -5897.5372      0             -5880.1456     -523.8383     
   2890000   298.1188      -5898.6668      0             -5880.2086     -538.16527    
   2891000   307.59426     -5899.2855      0             -5880.2406     -510.53651    
   2892000   302.57199     -5898.7819      0             -5880.048      -477.48       
   2893000   297.93542     -5898.5294      0             -5880.0825     -552.11984    
   2894000   291.17491     -5898.0923      0             -5880.064      -511.27378    
   2895000   297.16129     -5898.3572      0             -5879.9583     -497.89948    
   2896000   297.79313     -5898.4014      0             -5879.9633     -508.71832    
   2897000   299.96543     -5898.581       0             -5880.0085     -496.905      
   2898000   302.77894     -5898.6908      0             -5879.9441     -557.69404    
   2899000   298.21439     -5898.4345      0             -5879.9704     -512.87334    
   2900000   300.07459     -5898.485       0             -5879.9057     -567.22321    
Loop time of 2499.14 on 64 procs for 2800000 steps with 840 atoms

Performance: 48.401 ns/day, 0.496 hours/ns, 1120.383 timesteps/s, 941.122 katom-step/s
99.5% CPU use with 64 MPI tasks x no OpenMP threads

MPI task timing breakdown:
Section |  min time  |  avg time  |  max time  |%varavg| %total
---------------------------------------------------------------
Pair    | 0.17902    | 239.44     | 2159.7     |4023.3 |  9.58
Bond    | 0.12616    | 0.13522    | 0.18182    |   2.8 |  0.01
Neigh   | 0.0048539  | 0.71151    | 5.0203     | 180.3 |  0.03
Comm    | 0.59108    | 164.93     | 849.44     |2319.4 |  6.60
Output  | 0.24945    | 0.35531    | 0.48134    |  12.2 |  0.01
Modify  | 30.003     | 2072.6     | 2478.9     |1774.2 | 82.93
Other   |            | 21.01      |            |       |  0.84

Nlocal:         13.125 ave         119 max           0 min
Histogram: 56 0 0 0 0 1 1 2 2 2
Nghost:          73.75 ave         437 max           0 min
Histogram: 48 0 0 0 8 0 0 0 3 5
Neighs:              0 ave           0 max           0 min
Histogram: 64 0 0 0 0 0 0 0 0 0
FullNghs:      1335.56 ave       13082 max           0 min
Histogram: 56 0 0 0 1 1 1 2 1 2

Total # of neighbors = 85476
Ave neighs/atom = 101.75714
Ave special neighs/atom = 0
Neighbor list builds = 5499
Dangerous builds = 0
Total wall time: 0:42:58
