LAMMPS data file. CGCMM style. atom_style charge generated by VMD/TopoTools v1.7 on Sun Jun 30 17:33:53 -0300 2024
 2016 atoms
 0 bonds
 0 angles
 0 dihedrals
 0 impropers
 1 atom types
 0 bond types
 0 angle types
 0 dihedral types
 0 improper types
 -1.703531 49.596468  xlo xhi
 -0.311002 100.989001  ylo yhi
 -5.000000 5.000000  zlo zhi

# Pair Coeffs
#
# 1  CA

 Masses

 1 12.010700 # CA

 Atoms # charge

1 1 0.000000 0.000000 0.000000 0.000000 # CA
2 1 0.000000 -1.228024 0.709000 0.000000 # CA
3 1 0.000000 -1.228024 2.127000 0.000000 # CA
4 1 0.000000 0.000000 2.836000 0.000000 # CA
5 1 0.000000 2.456048 0.000000 0.000000 # CA
6 1 0.000000 1.228024 0.709000 0.000000 # CA
7 1 0.000000 1.228024 2.127000 0.000000 # CA
8 1 0.000000 2.456048 2.836000 0.000000 # CA
9 1 0.000000 4.912096 0.000000 0.000000 # CA
10 1 0.000000 3.684072 0.709000 0.000000 # CA
11 1 0.000000 3.684072 2.127000 0.000000 # CA
12 1 0.000000 4.912096 2.836000 0.000000 # CA
13 1 0.000000 7.368144 0.000000 0.000000 # CA
14 1 0.000000 6.140120 0.709000 0.000000 # CA
15 1 0.000000 6.140120 2.127000 0.000000 # CA
16 1 0.000000 7.368144 2.836000 0.000000 # CA
17 1 0.000000 9.824192 0.000000 0.000000 # CA
18 1 0.000000 8.596169 0.709000 0.000000 # CA
19 1 0.000000 8.596169 2.127000 0.000000 # CA
20 1 0.000000 9.824192 2.836000 0.000000 # CA
21 1 0.000000 12.280240 0.000000 0.000000 # CA
22 1 0.000000 11.052217 0.709000 0.000000 # CA
23 1 0.000000 11.052217 2.127000 0.000000 # CA
24 1 0.000000 12.280240 2.836000 0.000000 # CA
25 1 0.000000 14.736288 0.000000 0.000000 # CA
26 1 0.000000 13.508265 0.709000 0.000000 # CA
27 1 0.000000 13.508265 2.127000 0.000000 # CA
28 1 0.000000 14.736288 2.836000 0.000000 # CA
29 1 0.000000 17.192337 0.000000 0.000000 # CA
30 1 0.000000 15.964313 0.709000 0.000000 # CA
31 1 0.000000 15.964313 2.127000 0.000000 # CA
32 1 0.000000 17.192337 2.836000 0.000000 # CA
33 1 0.000000 19.648384 0.000000 0.000000 # CA
34 1 0.000000 18.420361 0.709000 0.000000 # CA
35 1 0.000000 18.420361 2.127000 0.000000 # CA
36 1 0.000000 19.648384 2.836000 0.000000 # CA
37 1 0.000000 22.104433 0.000000 0.000000 # CA
38 1 0.000000 20.876408 0.709000 0.000000 # CA
39 1 0.000000 20.876408 2.127000 0.000000 # CA
40 1 0.000000 22.104433 2.836000 0.000000 # CA
41 1 0.000000 24.560480 0.000000 0.000000 # CA
42 1 0.000000 23.332457 0.709000 0.000000 # CA
43 1 0.000000 23.332457 2.127000 0.000000 # CA
44 1 0.000000 24.560480 2.836000 0.000000 # CA
45 1 0.000000 27.016529 0.000000 0.000000 # CA
46 1 0.000000 25.788504 0.709000 0.000000 # CA
47 1 0.000000 25.788504 2.127000 0.000000 # CA
48 1 0.000000 27.016529 2.836000 0.000000 # CA
49 1 0.000000 29.472576 0.000000 0.000000 # CA
50 1 0.000000 28.244553 0.709000 0.000000 # CA
51 1 0.000000 28.244553 2.127000 0.000000 # CA
52 1 0.000000 29.472576 2.836000 0.000000 # CA
53 1 0.000000 31.928625 0.000000 0.000000 # CA
54 1 0.000000 30.700600 0.709000 0.000000 # CA
55 1 0.000000 30.700600 2.127000 0.000000 # CA
56 1 0.000000 31.928625 2.836000 0.000000 # CA
57 1 0.000000 34.384674 0.000000 0.000000 # CA
58 1 0.000000 33.156647 0.709000 0.000000 # CA
59 1 0.000000 33.156647 2.127000 0.000000 # CA
60 1 0.000000 34.384674 2.836000 0.000000 # CA
61 1 0.000000 36.840721 0.000000 0.000000 # CA
62 1 0.000000 35.612698 0.709000 0.000000 # CA
63 1 0.000000 35.612698 2.127000 0.000000 # CA
64 1 0.000000 36.840721 2.836000 0.000000 # CA
65 1 0.000000 39.296768 0.000000 0.000000 # CA
66 1 0.000000 38.068745 0.709000 0.000000 # CA
67 1 0.000000 38.068745 2.127000 0.000000 # CA
68 1 0.000000 39.296768 2.836000 0.000000 # CA
69 1 0.000000 41.752815 0.000000 0.000000 # CA
70 1 0.000000 40.524792 0.709000 0.000000 # CA
71 1 0.000000 40.524792 2.127000 0.000000 # CA
72 1 0.000000 41.752815 2.836000 0.000000 # CA
73 1 0.000000 44.208866 0.000000 0.000000 # CA
74 1 0.000000 42.980843 0.709000 0.000000 # CA
75 1 0.000000 42.980843 2.127000 0.000000 # CA
76 1 0.000000 44.208866 2.836000 0.000000 # CA
77 1 0.000000 46.664913 0.000000 0.000000 # CA
78 1 0.000000 45.436890 0.709000 0.000000 # CA
79 1 0.000000 45.436890 2.127000 0.000000 # CA
80 1 0.000000 46.664913 2.836000 0.000000 # CA
81 1 0.000000 49.120960 0.000000 0.000000 # CA
82 1 0.000000 47.892937 0.709000 0.000000 # CA
83 1 0.000000 47.892937 2.127000 0.000000 # CA
84 1 0.000000 49.120960 2.836000 0.000000 # CA
85 1 0.000000 0.000000 4.254000 0.000000 # CA
86 1 0.000000 -1.228024 4.963000 0.000000 # CA
87 1 0.000000 -1.228024 6.381000 0.000000 # CA
88 1 0.000000 0.000000 7.090000 0.000000 # CA
89 1 0.000000 2.456048 4.254000 0.000000 # CA
90 1 0.000000 1.228024 4.963000 0.000000 # CA
91 1 0.000000 1.228024 6.381000 0.000000 # CA
92 1 0.000000 2.456048 7.090000 0.000000 # CA
93 1 0.000000 4.912096 4.254000 0.000000 # CA
94 1 0.000000 3.684072 4.963000 0.000000 # CA
95 1 0.000000 3.684072 6.381000 0.000000 # CA
96 1 0.000000 4.912096 7.090000 0.000000 # CA
97 1 0.000000 7.368144 4.254000 0.000000 # CA
98 1 0.000000 6.140120 4.963000 0.000000 # CA
99 1 0.000000 6.140120 6.381000 0.000000 # CA
100 1 0.000000 7.368144 7.090000 0.000000 # CA
101 1 0.000000 9.824192 4.254000 0.000000 # CA
102 1 0.000000 8.596169 4.963000 0.000000 # CA
103 1 0.000000 8.596169 6.381000 0.000000 # CA
104 1 0.000000 9.824192 7.090000 0.000000 # CA
105 1 0.000000 12.280240 4.254000 0.000000 # CA
106 1 0.000000 11.052217 4.963000 0.000000 # CA
107 1 0.000000 11.052217 6.381000 0.000000 # CA
108 1 0.000000 12.280240 7.090000 0.000000 # CA
109 1 0.000000 14.736288 4.254000 0.000000 # CA
110 1 0.000000 13.508265 4.963000 0.000000 # CA
111 1 0.000000 13.508265 6.381000 0.000000 # CA
112 1 0.000000 14.736288 7.090000 0.000000 # CA
113 1 0.000000 17.192337 4.254000 0.000000 # CA
114 1 0.000000 15.964313 4.963000 0.000000 # CA
115 1 0.000000 15.964313 6.381000 0.000000 # CA
116 1 0.000000 17.192337 7.090000 0.000000 # CA
117 1 0.000000 19.648384 4.254000 0.000000 # CA
118 1 0.000000 18.420361 4.963000 0.000000 # CA
119 1 0.000000 18.420361 6.381000 0.000000 # CA
120 1 0.000000 19.648384 7.090000 0.000000 # CA
121 1 0.000000 22.104433 4.254000 0.000000 # CA
122 1 0.000000 20.876408 4.963000 0.000000 # CA
123 1 0.000000 20.876408 6.381000 0.000000 # CA
124 1 0.000000 22.104433 7.090000 0.000000 # CA
125 1 0.000000 24.560480 4.254000 0.000000 # CA
126 1 0.000000 23.332457 4.963000 0.000000 # CA
127 1 0.000000 23.332457 6.381000 0.000000 # CA
128 1 0.000000 24.560480 7.090000 0.000000 # CA
129 1 0.000000 27.016529 4.254000 0.000000 # CA
130 1 0.000000 25.788504 4.963000 0.000000 # CA
131 1 0.000000 25.788504 6.381000 0.000000 # CA
132 1 0.000000 27.016529 7.090000 0.000000 # CA
133 1 0.000000 29.472576 4.254000 0.000000 # CA
134 1 0.000000 28.244553 4.963000 0.000000 # CA
135 1 0.000000 28.244553 6.381000 0.000000 # CA
136 1 0.000000 29.472576 7.090000 0.000000 # CA
137 1 0.000000 31.928625 4.254000 0.000000 # CA
138 1 0.000000 30.700600 4.963000 0.000000 # CA
139 1 0.000000 30.700600 6.381000 0.000000 # CA
140 1 0.000000 31.928625 7.090000 0.000000 # CA
141 1 0.000000 34.384674 4.254000 0.000000 # CA
142 1 0.000000 33.156647 4.963000 0.000000 # CA
143 1 0.000000 33.156647 6.381000 0.000000 # CA
144 1 0.000000 34.384674 7.090000 0.000000 # CA
145 1 0.000000 36.840721 4.254000 0.000000 # CA
146 1 0.000000 35.612698 4.963000 0.000000 # CA
147 1 0.000000 35.612698 6.381000 0.000000 # CA
148 1 0.000000 36.840721 7.090000 0.000000 # CA
149 1 0.000000 39.296768 4.254000 0.000000 # CA
150 1 0.000000 38.068745 4.963000 0.000000 # CA
151 1 0.000000 38.068745 6.381000 0.000000 # CA
152 1 0.000000 39.296768 7.090000 0.000000 # CA
153 1 0.000000 41.752815 4.254000 0.000000 # CA
154 1 0.000000 40.524792 4.963000 0.000000 # CA
155 1 0.000000 40.524792 6.381000 0.000000 # CA
156 1 0.000000 41.752815 7.090000 0.000000 # CA
157 1 0.000000 44.208866 4.254000 0.000000 # CA
158 1 0.000000 42.980843 4.963000 0.000000 # CA
159 1 0.000000 42.980843 6.381000 0.000000 # CA
160 1 0.000000 44.208866 7.090000 0.000000 # CA
161 1 0.000000 46.664913 4.254000 0.000000 # CA
162 1 0.000000 45.436890 4.963000 0.000000 # CA
163 1 0.000000 45.436890 6.381000 0.000000 # CA
164 1 0.000000 46.664913 7.090000 0.000000 # CA
165 1 0.000000 49.120960 4.254000 0.000000 # CA
166 1 0.000000 47.892937 4.963000 0.000000 # CA
167 1 0.000000 47.892937 6.381000 0.000000 # CA
168 1 0.000000 49.120960 7.090000 0.000000 # CA
169 1 0.000000 0.000000 8.508000 0.000000 # CA
170 1 0.000000 -1.228024 9.217000 0.000000 # CA
171 1 0.000000 -1.228024 10.635000 0.000000 # CA
172 1 0.000000 0.000000 11.344000 0.000000 # CA
173 1 0.000000 2.456048 8.508000 0.000000 # CA
174 1 0.000000 1.228024 9.217000 0.000000 # CA
175 1 0.000000 1.228024 10.635000 0.000000 # CA
176 1 0.000000 2.456048 11.344000 0.000000 # CA
177 1 0.000000 4.912096 8.508000 0.000000 # CA
178 1 0.000000 3.684072 9.217000 0.000000 # CA
179 1 0.000000 3.684072 10.635000 0.000000 # CA
180 1 0.000000 4.912096 11.344000 0.000000 # CA
181 1 0.000000 7.368144 8.508000 0.000000 # CA
182 1 0.000000 6.140120 9.217000 0.000000 # CA
183 1 0.000000 6.140120 10.635000 0.000000 # CA
184 1 0.000000 7.368144 11.344000 0.000000 # CA
185 1 0.000000 9.824192 8.508000 0.000000 # CA
186 1 0.000000 8.596169 9.217000 0.000000 # CA
187 1 0.000000 8.596169 10.635000 0.000000 # CA
188 1 0.000000 9.824192 11.344000 0.000000 # CA
189 1 0.000000 12.280240 8.508000 0.000000 # CA
190 1 0.000000 11.052217 9.217000 0.000000 # CA
191 1 0.000000 11.052217 10.635000 0.000000 # CA
192 1 0.000000 12.280240 11.344000 0.000000 # CA
193 1 0.000000 14.736288 8.508000 0.000000 # CA
194 1 0.000000 13.508265 9.217000 0.000000 # CA
195 1 0.000000 13.508265 10.635000 0.000000 # CA
196 1 0.000000 14.736288 11.344000 0.000000 # CA
197 1 0.000000 17.192337 8.508000 0.000000 # CA
198 1 0.000000 15.964313 9.217000 0.000000 # CA
199 1 0.000000 15.964313 10.635000 0.000000 # CA
200 1 0.000000 17.192337 11.344000 0.000000 # CA
201 1 0.000000 19.648384 8.508000 0.000000 # CA
202 1 0.000000 18.420361 9.217000 0.000000 # CA
203 1 0.000000 18.420361 10.635000 0.000000 # CA
204 1 0.000000 19.648384 11.344000 0.000000 # CA
205 1 0.000000 22.104433 8.508000 0.000000 # CA
206 1 0.000000 20.876408 9.217000 0.000000 # CA
207 1 0.000000 20.876408 10.635000 0.000000 # CA
208 1 0.000000 22.104433 11.344000 0.000000 # CA
209 1 0.000000 24.560480 8.508000 0.000000 # CA
210 1 0.000000 23.332457 9.217000 0.000000 # CA
211 1 0.000000 23.332457 10.635000 0.000000 # CA
212 1 0.000000 24.560480 11.344000 0.000000 # CA
213 1 0.000000 27.016529 8.508000 0.000000 # CA
214 1 0.000000 25.788504 9.217000 0.000000 # CA
215 1 0.000000 25.788504 10.635000 0.000000 # CA
216 1 0.000000 27.016529 11.344000 0.000000 # CA
217 1 0.000000 29.472576 8.508000 0.000000 # CA
218 1 0.000000 28.244553 9.217000 0.000000 # CA
219 1 0.000000 28.244553 10.635000 0.000000 # CA
220 1 0.000000 29.472576 11.344000 0.000000 # CA
221 1 0.000000 31.928625 8.508000 0.000000 # CA
222 1 0.000000 30.700600 9.217000 0.000000 # CA
223 1 0.000000 30.700600 10.635000 0.000000 # CA
224 1 0.000000 31.928625 11.344000 0.000000 # CA
225 1 0.000000 34.384674 8.508000 0.000000 # CA
226 1 0.000000 33.156647 9.217000 0.000000 # CA
227 1 0.000000 33.156647 10.635000 0.000000 # CA
228 1 0.000000 34.384674 11.344000 0.000000 # CA
229 1 0.000000 36.840721 8.508000 0.000000 # CA
230 1 0.000000 35.612698 9.217000 0.000000 # CA
231 1 0.000000 35.612698 10.635000 0.000000 # CA
232 1 0.000000 36.840721 11.344000 0.000000 # CA
233 1 0.000000 39.296768 8.508000 0.000000 # CA
234 1 0.000000 38.068745 9.217000 0.000000 # CA
235 1 0.000000 38.068745 10.635000 0.000000 # CA
236 1 0.000000 39.296768 11.344000 0.000000 # CA
237 1 0.000000 41.752815 8.508000 0.000000 # CA
238 1 0.000000 40.524792 9.217000 0.000000 # CA
239 1 0.000000 40.524792 10.635000 0.000000 # CA
240 1 0.000000 41.752815 11.344000 0.000000 # CA
241 1 0.000000 44.208866 8.508000 0.000000 # CA
242 1 0.000000 42.980843 9.217000 0.000000 # CA
243 1 0.000000 42.980843 10.635000 0.000000 # CA
244 1 0.000000 44.208866 11.344000 0.000000 # CA
245 1 0.000000 46.664913 8.508000 0.000000 # CA
246 1 0.000000 45.436890 9.217000 0.000000 # CA
247 1 0.000000 45.436890 10.635000 0.000000 # CA
248 1 0.000000 46.664913 11.344000 0.000000 # CA
249 1 0.000000 49.120960 8.508000 0.000000 # CA
250 1 0.000000 47.892937 9.217000 0.000000 # CA
251 1 0.000000 47.892937 10.635000 0.000000 # CA
252 1 0.000000 49.120960 11.344000 0.000000 # CA
253 1 0.000000 0.000000 12.762000 0.000000 # CA
254 1 0.000000 -1.228024 13.471000 0.000000 # CA
255 1 0.000000 -1.228024 14.889000 0.000000 # CA
256 1 0.000000 0.000000 15.598000 0.000000 # CA
257 1 0.000000 2.456048 12.762000 0.000000 # CA
258 1 0.000000 1.228024 13.471000 0.000000 # CA
259 1 0.000000 1.228024 14.889000 0.000000 # CA
260 1 0.000000 2.456048 15.598000 0.000000 # CA
261 1 0.000000 4.912096 12.762000 0.000000 # CA
262 1 0.000000 3.684072 13.471000 0.000000 # CA
263 1 0.000000 3.684072 14.889000 0.000000 # CA
264 1 0.000000 4.912096 15.598000 0.000000 # CA
265 1 0.000000 7.368144 12.762000 0.000000 # CA
266 1 0.000000 6.140120 13.471000 0.000000 # CA
267 1 0.000000 6.140120 14.889000 0.000000 # CA
268 1 0.000000 7.368144 15.598000 0.000000 # CA
269 1 0.000000 9.824192 12.762000 0.000000 # CA
270 1 0.000000 8.596169 13.471000 0.000000 # CA
271 1 0.000000 8.596169 14.889000 0.000000 # CA
272 1 0.000000 9.824192 15.598000 0.000000 # CA
273 1 0.000000 12.280240 12.762000 0.000000 # CA
274 1 0.000000 11.052217 13.471000 0.000000 # CA
275 1 0.000000 11.052217 14.889000 0.000000 # CA
276 1 0.000000 12.280240 15.598000 0.000000 # CA
277 1 0.000000 14.736288 12.762000 0.000000 # CA
278 1 0.000000 13.508265 13.471000 0.000000 # CA
279 1 0.000000 13.508265 14.889000 0.000000 # CA
280 1 0.000000 14.736288 15.598000 0.000000 # CA
281 1 0.000000 17.192337 12.762000 0.000000 # CA
282 1 0.000000 15.964313 13.471000 0.000000 # CA
283 1 0.000000 15.964313 14.889000 0.000000 # CA
284 1 0.000000 17.192337 15.598000 0.000000 # CA
285 1 0.000000 19.648384 12.762000 0.000000 # CA
286 1 0.000000 18.420361 13.471000 0.000000 # CA
287 1 0.000000 18.420361 14.889000 0.000000 # CA
288 1 0.000000 19.648384 15.598000 0.000000 # CA
289 1 0.000000 22.104433 12.762000 0.000000 # CA
290 1 0.000000 20.876408 13.471000 0.000000 # CA
291 1 0.000000 20.876408 14.889000 0.000000 # CA
292 1 0.000000 22.104433 15.598000 0.000000 # CA
293 1 0.000000 24.560480 12.762000 0.000000 # CA
294 1 0.000000 23.332457 13.471000 0.000000 # CA
295 1 0.000000 23.332457 14.889000 0.000000 # CA
296 1 0.000000 24.560480 15.598000 0.000000 # CA
297 1 0.000000 27.016529 12.762000 0.000000 # CA
298 1 0.000000 25.788504 13.471000 0.000000 # CA
299 1 0.000000 25.788504 14.889000 0.000000 # CA
300 1 0.000000 27.016529 15.598000 0.000000 # CA
301 1 0.000000 29.472576 12.762000 0.000000 # CA
302 1 0.000000 28.244553 13.471000 0.000000 # CA
303 1 0.000000 28.244553 14.889000 0.000000 # CA
304 1 0.000000 29.472576 15.598000 0.000000 # CA
305 1 0.000000 31.928625 12.762000 0.000000 # CA
306 1 0.000000 30.700600 13.471000 0.000000 # CA
307 1 0.000000 30.700600 14.889000 0.000000 # CA
308 1 0.000000 31.928625 15.598000 0.000000 # CA
309 1 0.000000 34.384674 12.762000 0.000000 # CA
310 1 0.000000 33.156647 13.471000 0.000000 # CA
311 1 0.000000 33.156647 14.889000 0.000000 # CA
312 1 0.000000 34.384674 15.598000 0.000000 # CA
313 1 0.000000 36.840721 12.762000 0.000000 # CA
314 1 0.000000 35.612698 13.471000 0.000000 # CA
315 1 0.000000 35.612698 14.889000 0.000000 # CA
316 1 0.000000 36.840721 15.598000 0.000000 # CA
317 1 0.000000 39.296768 12.762000 0.000000 # CA
318 1 0.000000 38.068745 13.471000 0.000000 # CA
319 1 0.000000 38.068745 14.889000 0.000000 # CA
320 1 0.000000 39.296768 15.598000 0.000000 # CA
321 1 0.000000 41.752815 12.762000 0.000000 # CA
322 1 0.000000 40.524792 13.471000 0.000000 # CA
323 1 0.000000 40.524792 14.889000 0.000000 # CA
324 1 0.000000 41.752815 15.598000 0.000000 # CA
325 1 0.000000 44.208866 12.762000 0.000000 # CA
326 1 0.000000 42.980843 13.471000 0.000000 # CA
327 1 0.000000 42.980843 14.889000 0.000000 # CA
328 1 0.000000 44.208866 15.598000 0.000000 # CA
329 1 0.000000 46.664913 12.762000 0.000000 # CA
330 1 0.000000 45.436890 13.471000 0.000000 # CA
331 1 0.000000 45.436890 14.889000 0.000000 # CA
332 1 0.000000 46.664913 15.598000 0.000000 # CA
333 1 0.000000 49.120960 12.762000 0.000000 # CA
334 1 0.000000 47.892937 13.471000 0.000000 # CA
335 1 0.000000 47.892937 14.889000 0.000000 # CA
336 1 0.000000 49.120960 15.598000 0.000000 # CA
337 1 0.000000 0.000000 17.016001 0.000000 # CA
338 1 0.000000 -1.228024 17.725000 0.000000 # CA
339 1 0.000000 -1.228024 19.143000 0.000000 # CA
340 1 0.000000 0.000000 19.851999 0.000000 # CA
341 1 0.000000 2.456048 17.016001 0.000000 # CA
342 1 0.000000 1.228024 17.725000 0.000000 # CA
343 1 0.000000 1.228024 19.143000 0.000000 # CA
344 1 0.000000 2.456048 19.851999 0.000000 # CA
345 1 0.000000 4.912096 17.016001 0.000000 # CA
346 1 0.000000 3.684072 17.725000 0.000000 # CA
347 1 0.000000 3.684072 19.143000 0.000000 # CA
348 1 0.000000 4.912096 19.851999 0.000000 # CA
349 1 0.000000 7.368144 17.016001 0.000000 # CA
350 1 0.000000 6.140120 17.725000 0.000000 # CA
351 1 0.000000 6.140120 19.143000 0.000000 # CA
352 1 0.000000 7.368144 19.851999 0.000000 # CA
353 1 0.000000 9.824192 17.016001 0.000000 # CA
354 1 0.000000 8.596169 17.725000 0.000000 # CA
355 1 0.000000 8.596169 19.143000 0.000000 # CA
356 1 0.000000 9.824192 19.851999 0.000000 # CA
357 1 0.000000 12.280240 17.016001 0.000000 # CA
358 1 0.000000 11.052217 17.725000 0.000000 # CA
359 1 0.000000 11.052217 19.143000 0.000000 # CA
360 1 0.000000 12.280240 19.851999 0.000000 # CA
361 1 0.000000 14.736288 17.016001 0.000000 # CA
362 1 0.000000 13.508265 17.725000 0.000000 # CA
363 1 0.000000 13.508265 19.143000 0.000000 # CA
364 1 0.000000 14.736288 19.851999 0.000000 # CA
365 1 0.000000 17.192337 17.016001 0.000000 # CA
366 1 0.000000 15.964313 17.725000 0.000000 # CA
367 1 0.000000 15.964313 19.143000 0.000000 # CA
368 1 0.000000 17.192337 19.851999 0.000000 # CA
369 1 0.000000 19.648384 17.016001 0.000000 # CA
370 1 0.000000 18.420361 17.725000 0.000000 # CA
371 1 0.000000 18.420361 19.143000 0.000000 # CA
372 1 0.000000 19.648384 19.851999 0.000000 # CA
373 1 0.000000 22.104433 17.016001 0.000000 # CA
374 1 0.000000 20.876408 17.725000 0.000000 # CA
375 1 0.000000 20.876408 19.143000 0.000000 # CA
376 1 0.000000 22.104433 19.851999 0.000000 # CA
377 1 0.000000 24.560480 17.016001 0.000000 # CA
378 1 0.000000 23.332457 17.725000 0.000000 # CA
379 1 0.000000 23.332457 19.143000 0.000000 # CA
380 1 0.000000 24.560480 19.851999 0.000000 # CA
381 1 0.000000 27.016529 17.016001 0.000000 # CA
382 1 0.000000 25.788504 17.725000 0.000000 # CA
383 1 0.000000 25.788504 19.143000 0.000000 # CA
384 1 0.000000 27.016529 19.851999 0.000000 # CA
385 1 0.000000 29.472576 17.016001 0.000000 # CA
386 1 0.000000 28.244553 17.725000 0.000000 # CA
387 1 0.000000 28.244553 19.143000 0.000000 # CA
388 1 0.000000 29.472576 19.851999 0.000000 # CA
389 1 0.000000 31.928625 17.016001 0.000000 # CA
390 1 0.000000 30.700600 17.725000 0.000000 # CA
391 1 0.000000 30.700600 19.143000 0.000000 # CA
392 1 0.000000 31.928625 19.851999 0.000000 # CA
393 1 0.000000 34.384674 17.016001 0.000000 # CA
394 1 0.000000 33.156647 17.725000 0.000000 # CA
395 1 0.000000 33.156647 19.143000 0.000000 # CA
396 1 0.000000 34.384674 19.851999 0.000000 # CA
397 1 0.000000 36.840721 17.016001 0.000000 # CA
398 1 0.000000 35.612698 17.725000 0.000000 # CA
399 1 0.000000 35.612698 19.143000 0.000000 # CA
400 1 0.000000 36.840721 19.851999 0.000000 # CA
401 1 0.000000 39.296768 17.016001 0.000000 # CA
402 1 0.000000 38.068745 17.725000 0.000000 # CA
403 1 0.000000 38.068745 19.143000 0.000000 # CA
404 1 0.000000 39.296768 19.851999 0.000000 # CA
405 1 0.000000 41.752815 17.016001 0.000000 # CA
406 1 0.000000 40.524792 17.725000 0.000000 # CA
407 1 0.000000 40.524792 19.143000 0.000000 # CA
408 1 0.000000 41.752815 19.851999 0.000000 # CA
409 1 0.000000 44.208866 17.016001 0.000000 # CA
410 1 0.000000 42.980843 17.725000 0.000000 # CA
411 1 0.000000 42.980843 19.143000 0.000000 # CA
412 1 0.000000 44.208866 19.851999 0.000000 # CA
413 1 0.000000 46.664913 17.016001 0.000000 # CA
414 1 0.000000 45.436890 17.725000 0.000000 # CA
415 1 0.000000 45.436890 19.143000 0.000000 # CA
416 1 0.000000 46.664913 19.851999 0.000000 # CA
417 1 0.000000 49.120960 17.016001 0.000000 # CA
418 1 0.000000 47.892937 17.725000 0.000000 # CA
419 1 0.000000 47.892937 19.143000 0.000000 # CA
420 1 0.000000 49.120960 19.851999 0.000000 # CA
421 1 0.000000 0.000000 21.270000 0.000000 # CA
422 1 0.000000 -1.228024 21.979000 0.000000 # CA
423 1 0.000000 -1.228024 23.396999 0.000000 # CA
424 1 0.000000 0.000000 24.106001 0.000000 # CA
425 1 0.000000 2.456048 21.270000 0.000000 # CA
426 1 0.000000 1.228024 21.979000 0.000000 # CA
427 1 0.000000 1.228024 23.396999 0.000000 # CA
428 1 0.000000 2.456048 24.106001 0.000000 # CA
429 1 0.000000 4.912096 21.270000 0.000000 # CA
430 1 0.000000 3.684072 21.979000 0.000000 # CA
431 1 0.000000 3.684072 23.396999 0.000000 # CA
432 1 0.000000 4.912096 24.106001 0.000000 # CA
433 1 0.000000 7.368144 21.270000 0.000000 # CA
434 1 0.000000 6.140120 21.979000 0.000000 # CA
435 1 0.000000 6.140120 23.396999 0.000000 # CA
436 1 0.000000 7.368144 24.106001 0.000000 # CA
437 1 0.000000 9.824192 21.270000 0.000000 # CA
438 1 0.000000 8.596169 21.979000 0.000000 # CA
439 1 0.000000 8.596169 23.396999 0.000000 # CA
440 1 0.000000 9.824192 24.106001 0.000000 # CA
441 1 0.000000 12.280240 21.270000 0.000000 # CA
442 1 0.000000 11.052217 21.979000 0.000000 # CA
443 1 0.000000 11.052217 23.396999 0.000000 # CA
444 1 0.000000 12.280240 24.106001 0.000000 # CA
445 1 0.000000 14.736288 21.270000 0.000000 # CA
446 1 0.000000 13.508265 21.979000 0.000000 # CA
447 1 0.000000 13.508265 23.396999 0.000000 # CA
448 1 0.000000 14.736288 24.106001 0.000000 # CA
449 1 0.000000 17.192337 21.270000 0.000000 # CA
450 1 0.000000 15.964313 21.979000 0.000000 # CA
451 1 0.000000 15.964313 23.396999 0.000000 # CA
452 1 0.000000 17.192337 24.106001 0.000000 # CA
453 1 0.000000 19.648384 21.270000 0.000000 # CA
454 1 0.000000 18.420361 21.979000 0.000000 # CA
455 1 0.000000 18.420361 23.396999 0.000000 # CA
456 1 0.000000 19.648384 24.106001 0.000000 # CA
457 1 0.000000 22.104433 21.270000 0.000000 # CA
458 1 0.000000 20.876408 21.979000 0.000000 # CA
459 1 0.000000 20.876408 23.396999 0.000000 # CA
460 1 0.000000 22.104433 24.106001 0.000000 # CA
461 1 0.000000 24.560480 21.270000 0.000000 # CA
462 1 0.000000 23.332457 21.979000 0.000000 # CA
463 1 0.000000 23.332457 23.396999 0.000000 # CA
464 1 0.000000 24.560480 24.106001 0.000000 # CA
465 1 0.000000 27.016529 21.270000 0.000000 # CA
466 1 0.000000 25.788504 21.979000 0.000000 # CA
467 1 0.000000 25.788504 23.396999 0.000000 # CA
468 1 0.000000 27.016529 24.106001 0.000000 # CA
469 1 0.000000 29.472576 21.270000 0.000000 # CA
470 1 0.000000 28.244553 21.979000 0.000000 # CA
471 1 0.000000 28.244553 23.396999 0.000000 # CA
472 1 0.000000 29.472576 24.106001 0.000000 # CA
473 1 0.000000 31.928625 21.270000 0.000000 # CA
474 1 0.000000 30.700600 21.979000 0.000000 # CA
475 1 0.000000 30.700600 23.396999 0.000000 # CA
476 1 0.000000 31.928625 24.106001 0.000000 # CA
477 1 0.000000 34.384674 21.270000 0.000000 # CA
478 1 0.000000 33.156647 21.979000 0.000000 # CA
479 1 0.000000 33.156647 23.396999 0.000000 # CA
480 1 0.000000 34.384674 24.106001 0.000000 # CA
481 1 0.000000 36.840721 21.270000 0.000000 # CA
482 1 0.000000 35.612698 21.979000 0.000000 # CA
483 1 0.000000 35.612698 23.396999 0.000000 # CA
484 1 0.000000 36.840721 24.106001 0.000000 # CA
485 1 0.000000 39.296768 21.270000 0.000000 # CA
486 1 0.000000 38.068745 21.979000 0.000000 # CA
487 1 0.000000 38.068745 23.396999 0.000000 # CA
488 1 0.000000 39.296768 24.106001 0.000000 # CA
489 1 0.000000 41.752815 21.270000 0.000000 # CA
490 1 0.000000 40.524792 21.979000 0.000000 # CA
491 1 0.000000 40.524792 23.396999 0.000000 # CA
492 1 0.000000 41.752815 24.106001 0.000000 # CA
493 1 0.000000 44.208866 21.270000 0.000000 # CA
494 1 0.000000 42.980843 21.979000 0.000000 # CA
495 1 0.000000 42.980843 23.396999 0.000000 # CA
496 1 0.000000 44.208866 24.106001 0.000000 # CA
497 1 0.000000 46.664913 21.270000 0.000000 # CA
498 1 0.000000 45.436890 21.979000 0.000000 # CA
499 1 0.000000 45.436890 23.396999 0.000000 # CA
500 1 0.000000 46.664913 24.106001 0.000000 # CA
501 1 0.000000 49.120960 21.270000 0.000000 # CA
502 1 0.000000 47.892937 21.979000 0.000000 # CA
503 1 0.000000 47.892937 23.396999 0.000000 # CA
504 1 0.000000 49.120960 24.106001 0.000000 # CA
505 1 0.000000 0.000000 25.524000 0.000000 # CA
506 1 0.000000 -1.228024 26.233000 0.000000 # CA
507 1 0.000000 -1.228024 27.650999 0.000000 # CA
508 1 0.000000 0.000000 28.360001 0.000000 # CA
509 1 0.000000 2.456048 25.524000 0.000000 # CA
510 1 0.000000 1.228024 26.233000 0.000000 # CA
511 1 0.000000 1.228024 27.650999 0.000000 # CA
512 1 0.000000 2.456048 28.360001 0.000000 # CA
513 1 0.000000 4.912096 25.524000 0.000000 # CA
514 1 0.000000 3.684072 26.233000 0.000000 # CA
515 1 0.000000 3.684072 27.650999 0.000000 # CA
516 1 0.000000 4.912096 28.360001 0.000000 # CA
517 1 0.000000 7.368144 25.524000 0.000000 # CA
518 1 0.000000 6.140120 26.233000 0.000000 # CA
519 1 0.000000 6.140120 27.650999 0.000000 # CA
520 1 0.000000 7.368144 28.360001 0.000000 # CA
521 1 0.000000 9.824192 25.524000 0.000000 # CA
522 1 0.000000 8.596169 26.233000 0.000000 # CA
523 1 0.000000 8.596169 27.650999 0.000000 # CA
524 1 0.000000 9.824192 28.360001 0.000000 # CA
525 1 0.000000 12.280240 25.524000 0.000000 # CA
526 1 0.000000 11.052217 26.233000 0.000000 # CA
527 1 0.000000 11.052217 27.650999 0.000000 # CA
528 1 0.000000 12.280240 28.360001 0.000000 # CA
529 1 0.000000 14.736288 25.524000 0.000000 # CA
530 1 0.000000 13.508265 26.233000 0.000000 # CA
531 1 0.000000 13.508265 27.650999 0.000000 # CA
532 1 0.000000 14.736288 28.360001 0.000000 # CA
533 1 0.000000 17.192337 25.524000 0.000000 # CA
534 1 0.000000 15.964313 26.233000 0.000000 # CA
535 1 0.000000 15.964313 27.650999 0.000000 # CA
536 1 0.000000 17.192337 28.360001 0.000000 # CA
537 1 0.000000 19.648384 25.524000 0.000000 # CA
538 1 0.000000 18.420361 26.233000 0.000000 # CA
539 1 0.000000 18.420361 27.650999 0.000000 # CA
540 1 0.000000 19.648384 28.360001 0.000000 # CA
541 1 0.000000 22.104433 25.524000 0.000000 # CA
542 1 0.000000 20.876408 26.233000 0.000000 # CA
543 1 0.000000 20.876408 27.650999 0.000000 # CA
544 1 0.000000 22.104433 28.360001 0.000000 # CA
545 1 0.000000 24.560480 25.524000 0.000000 # CA
546 1 0.000000 23.332457 26.233000 0.000000 # CA
547 1 0.000000 23.332457 27.650999 0.000000 # CA
548 1 0.000000 24.560480 28.360001 0.000000 # CA
549 1 0.000000 27.016529 25.524000 0.000000 # CA
550 1 0.000000 25.788504 26.233000 0.000000 # CA
551 1 0.000000 25.788504 27.650999 0.000000 # CA
552 1 0.000000 27.016529 28.360001 0.000000 # CA
553 1 0.000000 29.472576 25.524000 0.000000 # CA
554 1 0.000000 28.244553 26.233000 0.000000 # CA
555 1 0.000000 28.244553 27.650999 0.000000 # CA
556 1 0.000000 29.472576 28.360001 0.000000 # CA
557 1 0.000000 31.928625 25.524000 0.000000 # CA
558 1 0.000000 30.700600 26.233000 0.000000 # CA
559 1 0.000000 30.700600 27.650999 0.000000 # CA
560 1 0.000000 31.928625 28.360001 0.000000 # CA
561 1 0.000000 34.384674 25.524000 0.000000 # CA
562 1 0.000000 33.156647 26.233000 0.000000 # CA
563 1 0.000000 33.156647 27.650999 0.000000 # CA
564 1 0.000000 34.384674 28.360001 0.000000 # CA
565 1 0.000000 36.840721 25.524000 0.000000 # CA
566 1 0.000000 35.612698 26.233000 0.000000 # CA
567 1 0.000000 35.612698 27.650999 0.000000 # CA
568 1 0.000000 36.840721 28.360001 0.000000 # CA
569 1 0.000000 39.296768 25.524000 0.000000 # CA
570 1 0.000000 38.068745 26.233000 0.000000 # CA
571 1 0.000000 38.068745 27.650999 0.000000 # CA
572 1 0.000000 39.296768 28.360001 0.000000 # CA
573 1 0.000000 41.752815 25.524000 0.000000 # CA
574 1 0.000000 40.524792 26.233000 0.000000 # CA
575 1 0.000000 40.524792 27.650999 0.000000 # CA
576 1 0.000000 41.752815 28.360001 0.000000 # CA
577 1 0.000000 44.208866 25.524000 0.000000 # CA
578 1 0.000000 42.980843 26.233000 0.000000 # CA
579 1 0.000000 42.980843 27.650999 0.000000 # CA
580 1 0.000000 44.208866 28.360001 0.000000 # CA
581 1 0.000000 46.664913 25.524000 0.000000 # CA
582 1 0.000000 45.436890 26.233000 0.000000 # CA
583 1 0.000000 45.436890 27.650999 0.000000 # CA
584 1 0.000000 46.664913 28.360001 0.000000 # CA
585 1 0.000000 49.120960 25.524000 0.000000 # CA
586 1 0.000000 47.892937 26.233000 0.000000 # CA
587 1 0.000000 47.892937 27.650999 0.000000 # CA
588 1 0.000000 49.120960 28.360001 0.000000 # CA
589 1 0.000000 0.000000 29.778000 0.000000 # CA
590 1 0.000000 -1.228024 30.487000 0.000000 # CA
591 1 0.000000 -1.228024 31.905001 0.000000 # CA
592 1 0.000000 0.000000 32.613998 0.000000 # CA
593 1 0.000000 2.456048 29.778000 0.000000 # CA
594 1 0.000000 1.228024 30.487000 0.000000 # CA
595 1 0.000000 1.228024 31.905001 0.000000 # CA
596 1 0.000000 2.456048 32.613998 0.000000 # CA
597 1 0.000000 4.912096 29.778000 0.000000 # CA
598 1 0.000000 3.684072 30.487000 0.000000 # CA
599 1 0.000000 3.684072 31.905001 0.000000 # CA
600 1 0.000000 4.912096 32.613998 0.000000 # CA
601 1 0.000000 7.368144 29.778000 0.000000 # CA
602 1 0.000000 6.140120 30.487000 0.000000 # CA
603 1 0.000000 6.140120 31.905001 0.000000 # CA
604 1 0.000000 7.368144 32.613998 0.000000 # CA
605 1 0.000000 9.824192 29.778000 0.000000 # CA
606 1 0.000000 8.596169 30.487000 0.000000 # CA
607 1 0.000000 8.596169 31.905001 0.000000 # CA
608 1 0.000000 9.824192 32.613998 0.000000 # CA
609 1 0.000000 12.280240 29.778000 0.000000 # CA
610 1 0.000000 11.052217 30.487000 0.000000 # CA
611 1 0.000000 11.052217 31.905001 0.000000 # CA
612 1 0.000000 12.280240 32.613998 0.000000 # CA
613 1 0.000000 14.736288 29.778000 0.000000 # CA